   6   6   0   0
  0.4418861E+02  0.3315000E-09  0.3315000E-09  0.2412651E-08  0.2500000E-15
  1.000000000000000E-004
  CAR 
 unknown system                          
      5.40323369    -30.86838208  301     -4.74526214      1.00000000
    -30.868  0.0000E+00  0.0000E+00
    -30.747  0.0000E+00  0.0000E+00
    -30.627  0.0000E+00  0.0000E+00
    -30.506  0.0000E+00  0.0000E+00
    -30.385  0.0000E+00  0.0000E+00
    -30.264  0.0000E+00  0.0000E+00
    -30.143  0.0000E+00  0.0000E+00
    -30.022  0.0000E+00  0.0000E+00
    -29.901  0.0000E+00  0.0000E+00
    -29.780  0.0000E+00  0.0000E+00
    -29.659  0.0000E+00  0.0000E+00
    -29.538  0.0000E+00  0.0000E+00
    -29.418  0.5220E-09  0.6311E-10
    -29.297  0.1002E-02  0.1211E-03
    -29.176  0.2459E+00  0.2985E-01
    -29.055  0.6532E+00  0.1088E+00
    -28.934  0.6746E+00  0.1904E+00
    -28.813  0.5571E+00  0.2577E+00
    -28.692  0.7964E+00  0.3540E+00
    -28.571  0.4445E+00  0.4078E+00
    -28.450  0.8776E+00  0.5139E+00
    -28.329  0.4947E+00  0.5737E+00
    -28.208  0.7619E+00  0.6658E+00
    -28.088  0.7483E+00  0.7563E+00
    -27.967  0.4245E+00  0.8076E+00
    -27.846  0.9717E+00  0.9251E+00
    -27.725  0.5391E+00  0.9903E+00
    -27.604  0.5429E+00  0.1056E+01
    -27.483  0.9733E+00  0.1174E+01
    -27.362  0.5148E+00  0.1236E+01
    -27.241  0.7872E+00  0.1331E+01
    -27.120  0.5292E+00  0.1395E+01
    -26.999  0.9661E+00  0.1512E+01
    -26.879  0.7908E+00  0.1607E+01
    -26.758  0.2293E+00  0.1635E+01
    -26.637  0.1089E+01  0.1767E+01
    -26.516  0.8289E+00  0.1867E+01
    -26.395  0.5756E+00  0.1937E+01
    -26.274  0.7260E+00  0.2024E+01
    -26.153  0.7636E+00  0.2117E+01
    -26.032  0.9702E+00  0.2234E+01
    -25.911  0.8255E+00  0.2334E+01
    -25.790  0.6704E+00  0.2415E+01
    -25.669  0.8230E+00  0.2514E+01
    -25.549  0.1272E+01  0.2668E+01
    -25.428  0.9616E+00  0.2784E+01
    -25.307  0.1046E+01  0.2911E+01
    -25.186  0.1102E+01  0.3044E+01
    -25.065  0.1224E+01  0.3192E+01
    -24.944  0.6876E+00  0.3275E+01
    -24.823  0.4621E+00  0.3331E+01
    -24.702  0.9658E+00  0.3448E+01
    -24.581  0.8487E+00  0.3550E+01
    -24.460  0.1438E+00  0.3568E+01
    -24.339  0.1206E+01  0.3714E+01
    -24.219  0.2543E+00  0.3744E+01
    -24.098  0.8304E+00  0.3845E+01
    -23.977  0.5267E+00  0.3908E+01
    -23.856  0.6502E+00  0.3987E+01
    -23.735  0.1074E+00  0.4000E+01
    -23.614  0.9158E-03  0.4000E+01
    -23.493  0.1516E+00  0.4018E+01
    -23.372  0.5277E+00  0.4082E+01
    -23.251  0.3364E+00  0.4123E+01
    -23.130  0.5462E+00  0.4189E+01
    -23.010  0.5587E+00  0.4257E+01
    -22.889  0.6132E+00  0.4331E+01
    -22.768  0.4062E+00  0.4380E+01
    -22.647  0.6537E+00  0.4459E+01
    -22.526  0.9726E+00  0.4576E+01
    -22.405  0.2605E+00  0.4608E+01
    -22.284  0.5439E+00  0.4674E+01
    -22.163  0.1196E+01  0.4818E+01
    -22.042  0.7415E+00  0.4908E+01
    -21.921  0.2686E+00  0.4940E+01
    -21.800  0.1228E+01  0.5089E+01
    -21.680  0.1093E+01  0.5221E+01
    -21.559  0.6605E+00  0.5301E+01
    -21.438  0.8443E+00  0.5403E+01
    -21.317  0.1562E+01  0.5592E+01
    -21.196  0.1147E+01  0.5730E+01
    -21.075  0.1835E+01  0.5952E+01
    -20.954  0.1302E+01  0.6110E+01
    -20.833  0.1437E+01  0.6283E+01
    -20.712  0.1204E+01  0.6429E+01
    -20.591  0.4217E+00  0.6480E+01
    -20.471  0.1856E+01  0.6704E+01
    -20.350  0.3808E+00  0.6750E+01
    -20.229  0.1303E+01  0.6908E+01
    -20.108  0.7755E+00  0.7002E+01
    -19.987  0.1406E+01  0.7172E+01
    -19.866  0.2284E+01  0.7448E+01
    -19.745  0.3515E+01  0.7873E+01
    -19.624  0.1045E+01  0.7999E+01
    -19.503  0.7187E-02  0.8000E+01
    -19.382  0.6316E-08  0.8000E+01
    -19.261  0.0000E+00  0.8000E+01
    -19.141  0.0000E+00  0.8000E+01
    -19.020  0.0000E+00  0.8000E+01
    -18.899  0.0000E+00  0.8000E+01
    -18.778  0.0000E+00  0.8000E+01
    -18.657  0.0000E+00  0.8000E+01
    -18.536  0.0000E+00  0.8000E+01
    -18.415  0.0000E+00  0.8000E+01
    -18.294  0.0000E+00  0.8000E+01
    -18.173  0.0000E+00  0.8000E+01
    -18.052  0.1854E-10  0.8000E+01
    -17.932  0.1480E-03  0.8000E+01
    -17.811  0.3453E-01  0.8004E+01
    -17.690  0.2805E-01  0.8008E+01
    -17.569  0.1635E+00  0.8027E+01
    -17.448  0.1343E+00  0.8044E+01
    -17.327  0.7004E-01  0.8052E+01
    -17.206  0.1019E+01  0.8175E+01
    -17.085  0.1930E+01  0.8409E+01
    -16.964  0.2003E+01  0.8651E+01
    -16.843  0.2235E+01  0.8921E+01
    -16.722  0.2619E+01  0.9238E+01
    -16.602  0.2260E+01  0.9511E+01
    -16.481  0.1766E+01  0.9724E+01
    -16.360  0.1565E+01  0.9914E+01
    -16.239  0.2280E+01  0.1019E+02
    -16.118  0.1737E+01  0.1040E+02
    -15.997  0.2055E+01  0.1065E+02
    -15.876  0.2773E+01  0.1098E+02
    -15.755  0.1913E+01  0.1121E+02
    -15.634  0.1959E+01  0.1145E+02
    -15.513  0.1537E+01  0.1164E+02
    -15.392  0.1046E+01  0.1176E+02
    -15.272  0.1286E+01  0.1192E+02
    -15.151  0.3365E+00  0.1196E+02
    -15.030  0.2505E+00  0.1199E+02
    -14.909  0.8192E-01  0.1200E+02
    -14.788  0.1892E-02  0.1200E+02
    -14.667  0.5776E-08  0.1200E+02
    -14.546  0.0000E+00  0.1200E+02
    -14.425  0.3583E-10  0.1200E+02
    -14.304  0.4168E-03  0.1200E+02
    -14.183  0.1615E+00  0.1202E+02
    -14.063  0.6790E+00  0.1210E+02
    -13.942  0.6191E+00  0.1218E+02
    -13.821  0.9227E+00  0.1229E+02
    -13.700  0.1198E+01  0.1243E+02
    -13.579  0.2173E+01  0.1270E+02
    -13.458  0.3379E+01  0.1310E+02
    -13.337  0.3974E+01  0.1358E+02
    -13.216  0.1582E+01  0.1378E+02
    -13.095  0.2143E+01  0.1403E+02
    -12.974  0.2622E+01  0.1435E+02
    -12.853  0.2388E+01  0.1464E+02
    -12.733  0.4201E+01  0.1515E+02
    -12.612  0.3436E+01  0.1556E+02
    -12.491  0.3185E+01  0.1595E+02
    -12.370  0.2069E+01  0.1620E+02
    -12.249  0.1337E+01  0.1636E+02
    -12.128  0.9016E+00  0.1647E+02
    -12.007  0.8813E+00  0.1658E+02
    -11.886  0.1568E+01  0.1677E+02
    -11.765  0.1538E+01  0.1695E+02
    -11.644  0.2412E+01  0.1724E+02
    -11.524  0.4830E+01  0.1783E+02
    -11.403  0.4249E+01  0.1834E+02
    -11.282  0.1466E+01  0.1852E+02
    -11.161  0.1353E+01  0.1868E+02
    -11.040  0.1005E+01  0.1880E+02
    -10.919  0.1264E+01  0.1896E+02
    -10.798  0.4959E+00  0.1902E+02
    -10.677  0.8939E+00  0.1912E+02
    -10.556  0.1164E+01  0.1927E+02
    -10.435  0.3403E+00  0.1931E+02
    -10.314  0.9762E+00  0.1942E+02
    -10.194  0.6666E+00  0.1950E+02
    -10.073  0.5193E+00  0.1957E+02
     -9.952  0.8116E+00  0.1967E+02
     -9.831  0.5144E+00  0.1973E+02
     -9.710  0.6386E+00  0.1981E+02
     -9.589  0.5769E+00  0.1987E+02
     -9.468  0.5685E+00  0.1994E+02
     -9.347  0.4287E+00  0.2000E+02
     -9.226  0.3684E-01  0.2000E+02
     -9.105  0.6155E-05  0.2000E+02
     -8.985  0.3973E-01  0.2000E+02
     -8.864  0.8681E+00  0.2011E+02
     -8.743  0.2356E+01  0.2039E+02
     -8.622  0.3373E+01  0.2080E+02
     -8.501  0.3760E+01  0.2126E+02
     -8.380  0.5036E+01  0.2187E+02
     -8.259  0.4138E+01  0.2237E+02
     -8.138  0.3454E+01  0.2278E+02
     -8.017  0.3026E+01  0.2315E+02
     -7.896  0.2837E+01  0.2349E+02
     -7.775  0.2513E+01  0.2380E+02
     -7.655  0.1621E+01  0.2399E+02
     -7.534  0.6142E-01  0.2400E+02
     -7.413  0.9674E-06  0.2400E+02
     -7.292  0.3459E-15  0.2400E+02
     -7.171  0.0000E+00  0.2400E+02
     -7.050  0.0000E+00  0.2400E+02
     -6.929  0.0000E+00  0.2400E+02
     -6.808  0.0000E+00  0.2400E+02
     -6.687  0.2635E-14  0.2400E+02
     -6.566  0.3628E-05  0.2400E+02
     -6.445  0.1177E+00  0.2401E+02
     -6.325  0.2417E+01  0.2431E+02
     -6.204  0.2399E+01  0.2460E+02
     -6.083  0.2025E+01  0.2484E+02
     -5.962  0.1495E+01  0.2502E+02
     -5.841  0.2087E+01  0.2527E+02
     -5.720  0.1574E+01  0.2546E+02
     -5.599  0.2238E+01  0.2574E+02
     -5.478  0.2071E+01  0.2599E+02
     -5.357  0.2899E+01  0.2634E+02
     -5.236  0.4159E+01  0.2684E+02
     -5.116  0.6023E+01  0.2757E+02
     -4.995  0.3504E+01  0.2799E+02
     -4.874  0.7460E-01  0.2800E+02
     -4.753  0.4035E-06  0.2800E+02
     -4.632  0.0000E+00  0.2800E+02
     -4.511  0.0000E+00  0.2800E+02
     -4.390  0.0000E+00  0.2800E+02
     -4.269  0.0000E+00  0.2800E+02
     -4.148  0.0000E+00  0.2800E+02
     -4.027  0.0000E+00  0.2800E+02
     -3.906  0.0000E+00  0.2800E+02
     -3.786  0.0000E+00  0.2800E+02
     -3.665  0.0000E+00  0.2800E+02
     -3.544  0.0000E+00  0.2800E+02
     -3.423  0.0000E+00  0.2800E+02
     -3.302  0.0000E+00  0.2800E+02
     -3.181  0.0000E+00  0.2800E+02
     -3.060  0.0000E+00  0.2800E+02
     -2.939  0.0000E+00  0.2800E+02
     -2.818  0.0000E+00  0.2800E+02
     -2.697  0.0000E+00  0.2800E+02
     -2.577  0.0000E+00  0.2800E+02
     -2.456  0.0000E+00  0.2800E+02
     -2.335  0.0000E+00  0.2800E+02
     -2.214  0.0000E+00  0.2800E+02
     -2.093  0.0000E+00  0.2800E+02
     -1.972  0.0000E+00  0.2800E+02
     -1.851  0.0000E+00  0.2800E+02
     -1.730  0.0000E+00  0.2800E+02
     -1.609  0.0000E+00  0.2800E+02
     -1.488  0.0000E+00  0.2800E+02
     -1.367  0.0000E+00  0.2800E+02
     -1.247  0.0000E+00  0.2800E+02
     -1.126  0.0000E+00  0.2800E+02
     -1.005  0.0000E+00  0.2800E+02
     -0.884  0.0000E+00  0.2800E+02
     -0.763  0.0000E+00  0.2800E+02
     -0.642  0.0000E+00  0.2800E+02
     -0.521  0.0000E+00  0.2800E+02
     -0.400  0.1394E-08  0.2800E+02
     -0.279  0.2880E-02  0.2800E+02
     -0.158  0.1678E+01  0.2820E+02
     -0.038  0.4188E+01  0.2871E+02
      0.083  0.2623E+01  0.2903E+02
      0.204  0.2042E+01  0.2927E+02
      0.325  0.2429E+01  0.2957E+02
      0.446  0.1862E+01  0.2979E+02
      0.567  0.1989E+01  0.3003E+02
      0.688  0.2180E+01  0.3030E+02
      0.809  0.1867E+01  0.3052E+02
      0.930  0.1908E+01  0.3075E+02
      1.051  0.2248E+01  0.3102E+02
      1.172  0.1652E+01  0.3122E+02
      1.292  0.2641E+01  0.3154E+02
      1.413  0.2168E+01  0.3181E+02
      1.534  0.2010E+01  0.3205E+02
      1.655  0.2039E+01  0.3230E+02
      1.776  0.1918E+01  0.3253E+02
      1.897  0.2575E+01  0.3284E+02
      2.018  0.1426E+01  0.3301E+02
      2.139  0.1901E+01  0.3324E+02
      2.260  0.2002E+01  0.3348E+02
      2.381  0.1590E+01  0.3368E+02
      2.502  0.1356E+01  0.3384E+02
      2.622  0.7597E+00  0.3393E+02
      2.743  0.1490E+01  0.3411E+02
      2.864  0.1540E+01  0.3430E+02
      2.985  0.1212E+01  0.3444E+02
      3.106  0.1864E+01  0.3467E+02
      3.227  0.1820E+01  0.3489E+02
      3.348  0.1215E+01  0.3504E+02
      3.469  0.2627E+01  0.3535E+02
      3.590  0.2365E+01  0.3564E+02
      3.711  0.2185E+01  0.3590E+02
      3.831  0.7877E+00  0.3600E+02
      3.952  0.7450E-02  0.3600E+02
      4.073  0.4479E-08  0.3600E+02
      4.194  0.0000E+00  0.3600E+02
      4.315  0.0000E+00  0.3600E+02
      4.436  0.0000E+00  0.3600E+02
      4.557  0.0000E+00  0.3600E+02
      4.678  0.0000E+00  0.3600E+02
      4.799  0.0000E+00  0.3600E+02
      4.920  0.0000E+00  0.3600E+02
      5.041  0.0000E+00  0.3600E+02
      5.161  0.0000E+00  0.3600E+02
      5.282  0.0000E+00  0.3600E+02
      5.403  0.0000E+00  0.3600E+02
