    6    6    1    1
  0.4418861E+02  0.3315000E-09  0.3315000E-09  0.2412651E-08  0.2500000E-15
  1.000000000000000E-004
  CAR 
 unknown system                          
     28     55     18
 
  0.0000000E+00  0.0000000E+00  0.0000000E+00  0.2770083E-02
    1      -29.219672   1.000000
    2      -23.849006   1.000000
    3      -19.909530   1.000000
    4      -19.909530   1.000000
    5      -17.835218   1.000000
    6      -14.970263   1.000000
    7      -13.668934   1.000000
    8      -12.427854   1.000000
    9      -12.427854   1.000000
   10      -11.954437   1.000000
   11       -8.973923   1.000000
   12       -8.540015   1.000000
   13       -6.153799   1.000000
   14       -6.153799   1.000000
   15       -0.207499   0.000000
   16        0.006027   0.000000
   17        0.006027   0.000000
   18        1.656404   0.000000
 
  0.5263158E-01  0.0000000E+00  0.0000000E+00  0.1108033E-01
    1      -29.192812   1.000000
    2      -23.873496   1.000000
    3      -20.080870   1.000000
    4      -19.895839   1.000000
    5      -17.642776   1.000000
    6      -15.057294   1.000000
    7      -13.625311   1.000000
    8      -12.513060   1.000000
    9      -12.486861   1.000000
   10      -11.843130   1.000000
   11       -8.939180   1.000000
   12       -8.517333   1.000000
   13       -6.178398   1.000000
   14       -6.128449   1.000000
   15       -0.163062   0.000000
   16       -0.011888   0.000000
   17        0.065790   0.000000
   18        1.700179   0.000000
 
  0.1052632E+00  0.0000000E+00  0.0000000E+00  0.1108033E-01
    1      -29.112300   1.000000
    2      -23.956027   1.000000
    3      -20.440960   1.000000
    4      -19.856888   1.000000
    5      -17.216840   1.000000
    6      -15.299924   1.000000
    7      -13.502395   1.000000
    8      -12.641080   1.000000
    9      -12.625410   1.000000
   10      -11.670390   1.000000
   11       -8.837650   1.000000
   12       -8.459995   1.000000
   13       -6.241212   1.000000
   14       -6.051319   1.000000
   15       -0.059485   0.000000
   16       -0.058858   0.000000
   17        0.264912   0.000000
   18        1.828119   0.000000
 
  0.1578947E+00  0.0000000E+00  0.0000000E+00  0.1108033E-01
    1      -28.978578   1.000000
    2      -24.120149   1.000000
    3      -20.790862   1.000000
    4      -19.799888   1.000000
    5      -16.751272   1.000000
    6      -15.647552   1.000000
    7      -13.361459   1.000000
    8      -12.793462   1.000000
    9      -12.678253   1.000000
   10      -11.562282   1.000000
   11       -8.685142   1.000000
   12       -8.395838   1.000000
   13       -6.311412   1.000000
   14       -5.921994   1.000000
   15       -0.117820   0.000000
   16        0.082658   0.000000
   17        0.590818   0.000000
   18        2.033244   0.000000
 
  0.2105263E+00  0.0000000E+00  0.0000000E+00  0.1108033E-01
    1      -28.792283   1.000000
    2      -24.388252   1.000000
    3      -21.028664   1.000000
    4      -19.738545   1.000000
    5      -16.350493   1.000000
    6      -16.034333   1.000000
    7      -13.413847   1.000000
    8      -12.693391   1.000000
    9      -12.679765   1.000000
   10      -11.539528   1.000000
   11       -8.516903   1.000000
   12       -8.358069   1.000000
   13       -6.344649   1.000000
   14       -5.747409   1.000000
   15       -0.168050   0.000000
   16        0.274444   0.000000
   17        0.968539   0.000000
   18        2.309715   0.000000
 
  0.2631579E+00  0.0000000E+00  0.0000000E+00  0.1108033E-01
    1      -28.554410   1.000000
    2      -24.759671   1.000000
    3      -21.121359   1.000000
    4      -19.695668   1.000000
    5      -16.395181   1.000000
    6      -16.076609   1.000000
    7      -13.602446   1.000000
    8      -12.665388   1.000000
    9      -12.367725   1.000000
   10      -11.572293   1.000000
   11       -8.374228   1.000000
   12       -8.368091   1.000000
   13       -6.300192   1.000000
   14       -5.549837   1.000000
   15       -0.189399   0.000000
   16        0.524953   0.000000
   17        1.272954   0.000000
   18        2.654625   0.000000
 
  0.3157895E+00  0.0000000E+00  0.0000000E+00  0.1108033E-01
    1      -28.266471   1.000000
    2      -25.206735   1.000000
    3      -21.081384   1.000000
    4      -19.703196   1.000000
    5      -16.670373   1.000000
    6      -15.972650   1.000000
    7      -13.725739   1.000000
    8      -12.682841   1.000000
    9      -12.003365   1.000000
   10      -11.606165   1.000000
   11       -8.416528   1.000000
   12       -8.285203   1.000000
   13       -6.163666   1.000000
   14       -5.367961   1.000000
   15       -0.164701   0.000000
   16        0.837336   0.000000
   17        1.348636   0.000000
   18        3.062656   0.000000
 
  0.3684211E+00  0.0000000E+00  0.0000000E+00  0.1108033E-01
    1      -27.930542   1.000000
    2      -25.692911   1.000000
    3      -20.939439   1.000000
    4      -19.791398   1.000000
    5      -16.813128   1.000000
    6      -16.043964   1.000000
    7      -13.713849   1.000000
    8      -12.774020   1.000000
    9      -11.694165   1.000000
   10      -11.592699   1.000000
   11       -8.464930   1.000000
   12       -8.258781   1.000000
   13       -5.953535   1.000000
   14       -5.246402   1.000000
   15       -0.081446   0.000000
   16        1.140341   0.000000
   17        1.246030   0.000000
   18        3.507262   0.000000
 
  0.4210526E+00  0.0000000E+00  0.0000000E+00  0.1108033E-01
    1      -27.549508   1.000000
    2      -26.187861   1.000000
    3      -20.726817   1.000000
    4      -19.967566   1.000000
    5      -16.808117   1.000000
    6      -16.235757   1.000000
    7      -13.582803   1.000000
    8      -12.942233   1.000000
    9      -11.528850   1.000000
   10      -11.497081   1.000000
   11       -8.473277   1.000000
   12       -8.288636   1.000000
   13       -5.708341   1.000000
   14       -5.219740   1.000000
   15        0.066910   0.000000
   16        0.863873   0.000000
   17        1.669512   0.000000
   18        3.385554   0.000000
 
  0.4736842E+00  0.0000000E+00  0.0000000E+00  0.1108033E-01
    1      -27.127549   1.000000
    2      -26.670670   1.000000
    3      -20.472634   1.000000
    4      -20.207491   1.000000
    5      -16.678448   1.000000
    6      -16.469481   1.000000
    7      -13.382615   1.000000
    8      -13.157113   1.000000
    9      -11.455203   1.000000
   10      -11.427089   1.000000
   11       -8.429548   1.000000
   12       -8.355847   1.000000
   13       -5.475160   1.000000
   14       -5.300551   1.000000
   15        0.280823   0.000000
   16        0.553527   0.000000
   17        2.182481   0.000000
   18        2.760887   0.000000
 
  0.5263158E-01  0.5263158E-01  0.0000000E+00  0.1108033E-01
    1      -29.165911   1.000000
    2      -23.895795   1.000000
    3      -20.217608   1.000000
    4      -19.900235   1.000000
    5      -17.468169   1.000000
    6      -15.144183   1.000000
    7      -13.586687   1.000000
    8      -12.635955   1.000000
    9      -12.472035   1.000000
   10      -11.756572   1.000000
   11       -8.909706   1.000000
   12       -8.497783   1.000000
   13       -6.228871   1.000000
   14       -6.074057   1.000000
   15       -0.147971   0.000000
   16        0.061250   0.000000
   17        0.064046   0.000000
   18        1.743248   0.000000
 
  0.1052632E+00  0.5263158E-01  0.0000000E+00  0.2216066E-01
    1      -29.085462   1.000000
    2      -23.972034   1.000000
    3      -20.546676   1.000000
    4      -19.871960   1.000000
    5      -17.067401   1.000000
    6      -15.386159   1.000000
    7      -13.479339   1.000000
    8      -12.794656   1.000000
    9      -12.534520   1.000000
   10      -11.597439   1.000000
   11       -8.820200   1.000000
   12       -8.450861   1.000000
   13       -6.297048   1.000000
   14       -5.983116   1.000000
   15       -0.126745   0.000000
   16        0.076375   0.000000
   17        0.283369   0.000000
   18        1.869652   0.000000
 
  0.1578947E+00  0.5263158E-01  0.0000000E+00  0.2216066E-01
    1      -28.951811   1.000000
    2      -24.126584   1.000000
    3      -20.884600   1.000000
    4      -19.819885   1.000000
    5      -16.618907   1.000000
    6      -15.731701   1.000000
    7      -13.363283   1.000000
    8      -12.924935   1.000000
    9      -12.566063   1.000000
   10      -11.487381   1.000000
   11       -8.679621   1.000000
   12       -8.402627   1.000000
   13       -6.351049   1.000000
   14       -5.858773   1.000000
   15       -0.136628   0.000000
   16        0.163147   0.000000
   17        0.617619   0.000000
   18        2.073271   0.000000
 
  0.2105263E+00  0.5263158E-01  0.0000000E+00  0.2216066E-01
    1      -28.765605   1.000000
    2      -24.384321   1.000000
    3      -21.119992   1.000000
    4      -19.763361   1.000000
    5      -16.239401   1.000000
    6      -16.108982   1.000000
    7      -13.424694   1.000000
    8      -12.880565   1.000000
    9      -12.482173   1.000000
   10      -11.463419   1.000000
   11       -8.531313   1.000000
   12       -8.367249   1.000000
   13       -6.361717   1.000000
   14       -5.697961   1.000000
   15       -0.161495   0.000000
   16        0.331789   0.000000
   17        1.000228   0.000000
   18        2.348272   0.000000
 
  0.2631579E+00  0.5263158E-01  0.0000000E+00  0.2216066E-01
    1      -28.527897   1.000000
    2      -24.747320   1.000000
    3      -21.212811   1.000000
    4      -19.727271   1.000000
    5      -16.472642   1.000000
    6      -15.980087   1.000000
    7      -13.587838   1.000000
    8      -12.757474   1.000000
    9      -12.256772   1.000000
   10      -11.504301   1.000000
   11       -8.479066   1.000000
   12       -8.294282   1.000000
   13       -6.301727   1.000000
   14       -5.515463   1.000000
   15       -0.167206   0.000000
   16        0.571212   0.000000
   17        1.314771   0.000000
   18        2.691424   0.000000
 
  0.3157895E+00  0.5263158E-01  0.0000000E+00  0.2216066E-01
    1      -28.240146   1.000000
    2      -25.188821   1.000000
    3      -21.172256   1.000000
    4      -19.744482   1.000000
    5      -16.737522   1.000000
    6      -15.911693   1.000000
    7      -13.671315   1.000000
    8      -12.693796   1.000000
    9      -11.967640   1.000000
   10      -11.554545   1.000000
   11       -8.511968   1.000000
   12       -8.211722   1.000000
   13       -6.160639   1.000000
   14       -5.345691   1.000000
   15       -0.131120   0.000000
   16        0.876726   0.000000
   17        1.403899   0.000000
   18        3.082021   0.000000
 
  0.3684211E+00  0.5263158E-01  0.0000000E+00  0.2216066E-01
    1      -27.904488   1.000000
    2      -25.671676   1.000000
    3      -21.028467   1.000000
    4      -19.844737   1.000000
    5      -16.867678   1.000000
    6      -16.018533   1.000000
    7      -13.622384   1.000000
    8      -12.720179   1.000000
    9      -11.740722   1.000000
   10      -11.539805   1.000000
   11       -8.537516   1.000000
   12       -8.188933   1.000000
   13       -5.951140   1.000000
   14       -5.232157   1.000000
   15       -0.039430   0.000000
   16        1.186936   0.000000
   17        1.294921   0.000000
   18        3.490362   0.000000
 
  0.4210526E+00  0.5263158E-01  0.0000000E+00  0.2216066E-01
    1      -27.523838   1.000000
    2      -26.164711   1.000000
    3      -20.812728   1.000000
    4      -20.032695   1.000000
    5      -16.849545   1.000000
    6      -16.235717   1.000000
    7      -13.468928   1.000000
    8      -12.846038   1.000000
    9      -11.613868   1.000000
   10      -11.465870   1.000000
   11       -8.511513   1.000000
   12       -8.232164   1.000000
   13       -5.706258   1.000000
   14       -5.210411   1.000000
   15        0.115142   0.000000
   16        0.922774   0.000000
   17        1.700518   0.000000
   18        3.392756   0.000000
 
  0.4736842E+00  0.5263158E-01  0.0000000E+00  0.2216066E-01
    1      -27.102388   1.000000
    2      -26.646295   1.000000
    3      -20.553884   1.000000
    4      -20.282023   1.000000
    5      -16.707590   1.000000
    6      -16.485977   1.000000
    7      -13.261034   1.000000
    8      -13.040580   1.000000
    9      -11.514667   1.000000
   10      -11.452321   1.000000
   11       -8.430001   1.000000
   12       -8.323367   1.000000
   13       -5.471635   1.000000
   14       -5.294489   1.000000
   15        0.333836   0.000000
   16        0.610199   0.000000
   17        2.207235   0.000000
   18        2.778559   0.000000
 
  0.1052632E+00  0.1052632E+00  0.0000000E+00  0.1108033E-01
    1      -29.005143   1.000000
    2      -24.029402   1.000000
    3      -20.820910   1.000000
    4      -19.874140   1.000000
    5      -16.707121   1.000000
    6      -15.625263   1.000000
    7      -13.418694   1.000000
    8      -12.954055   1.000000
    9      -12.506853   1.000000
   10      -11.437542   1.000000
   11       -8.760692   1.000000
   12       -8.434182   1.000000
   13       -6.372382   1.000000
   14       -5.862202   1.000000
   15       -0.148675   0.000000
   16        0.233069   0.000000
   17        0.405510   0.000000
   18        1.992517   0.000000
 
  0.1578947E+00  0.1052632E+00  0.0000000E+00  0.2216066E-01
    1      -28.871689   1.000000
    2      -24.154499   1.000000
    3      -21.135353   1.000000
    4      -19.846489   1.000000
    5      -16.291056   1.000000
    6      -15.963326   1.000000
    7      -13.365780   1.000000
    8      -13.072167   1.000000
    9      -12.455207   1.000000
   10      -11.301249   1.000000
   11       -8.657978   1.000000
   12       -8.424420   1.000000
   13       -6.407107   1.000000
   14       -5.728392   1.000000
   15       -0.149442   0.000000
   16        0.341660   0.000000
   17        0.715281   0.000000
   18        2.191979   0.000000
 
  0.2105263E+00  0.1052632E+00  0.0000000E+00  0.2216066E-01
    1      -28.685811   1.000000
    2      -24.378992   1.000000
    3      -21.370746   1.000000
    4      -19.812258   1.000000
    5      -16.337124   1.000000
    6      -15.938411   1.000000
    7      -13.425658   1.000000
    8      -13.051625   1.000000
    9      -12.308300   1.000000
   10      -11.252451   1.000000
   11       -8.583193   1.000000
   12       -8.375870   1.000000
   13       -6.382582   1.000000
   14       -5.582796   1.000000
   15       -0.138745   0.000000
   16        0.493153   0.000000
   17        1.098081   0.000000
   18        2.460097   0.000000
 
  0.2631579E+00  0.1052632E+00  0.0000000E+00  0.2216066E-01
    1      -28.448540   1.000000
    2      -24.714167   1.000000
    3      -21.469168   1.000000
    4      -19.803277   1.000000
    5      -16.669247   1.000000
    6      -15.751572   1.000000
    7      -13.508373   1.000000
    8      -12.934082   1.000000
    9      -12.081869   1.000000
   10      -11.293417   1.000000
   11       -8.612465   1.000000
   12       -8.240351   1.000000
   13       -6.295258   1.000000
   14       -5.429061   1.000000
   15       -0.108109   0.000000
   16        0.712946   0.000000
   17        1.435673   0.000000
   18        2.778886   0.000000
 
  0.3157895E+00  0.1052632E+00  0.0000000E+00  0.2216066E-01
    1      -28.161411   1.000000
    2      -25.137244   1.000000
    3      -21.430556   1.000000
    4      -19.855804   1.000000
    5      -16.902323   1.000000
    6      -15.769971   1.000000
    7      -13.486201   1.000000
    8      -12.801784   1.000000
    9      -11.847475   1.000000
   10      -11.388021   1.000000
   11       -8.654612   1.000000
   12       -8.122718   1.000000
   13       -6.145707   1.000000
   14       -5.287876   1.000000
   15       -0.041706   0.000000
   16        1.000418   0.000000
   17        1.562315   0.000000
   18        3.127530   0.000000
 
  0.3684211E+00  0.1052632E+00  0.0000000E+00  0.2216066E-01
    1      -27.826579   1.000000
    2      -25.609199   1.000000
    3      -21.283540   1.000000
    4      -19.996271   1.000000
    5      -16.993338   1.000000
    6      -15.955170   1.000000
    7      -13.352752   1.000000
    8      -12.698173   1.000000
    9      -11.696238   1.000000
   10      -11.471503   1.000000
   11       -8.643968   1.000000
   12       -8.082330   1.000000
   13       -5.938428   1.000000
   14       -5.195131   1.000000
   15        0.073760   0.000000
   16        1.308261   0.000000
   17        1.457043   0.000000
   18        3.494441   0.000000
 
  0.4210526E+00  0.1052632E+00  0.0000000E+00  0.2216066E-01
    1      -27.447075   1.000000
    2      -26.095848   1.000000
    3      -21.060051   1.000000
    4      -20.220845   1.000000
    5      -16.937297   1.000000
    6      -16.225246   1.000000
    7      -13.156991   1.000000
    8      -12.676384   1.000000
    9      -11.658139   1.000000
   10      -11.497504   1.000000
   11       -8.555810   1.000000
   12       -8.131530   1.000000
   13       -5.695309   1.000000
   14       -5.185826   1.000000
   15        0.246545   0.000000
   16        1.087602   0.000000
   17        1.800693   0.000000
   18        3.417445   0.000000
 
  0.4736842E+00  0.1052632E+00  0.0000000E+00  0.2216066E-01
    1      -27.027285   1.000000
    2      -26.573617   1.000000
    3      -20.788665   1.000000
    4      -20.497848   1.000000
    5      -16.762907   1.000000
    6      -16.511225   1.000000
    7      -12.947370   1.000000
    8      -12.769523   1.000000
    9      -11.613537   1.000000
   10      -11.542765   1.000000
   11       -8.409842   1.000000
   12       -8.252663   1.000000
   13       -5.458829   1.000000
   14       -5.277149   1.000000
   15        0.479424   0.000000
   16        0.767519   0.000000
   17        2.286541   0.000000
   18        2.835080   0.000000
 
  0.1578947E+00  0.1578947E+00  0.0000000E+00  0.1108033E-01
    1      -28.738591   1.000000
    2      -24.230387   1.000000
    3      -21.447621   1.000000
    4      -19.854343   1.000000
    5      -16.287380   1.000000
    6      -15.906041   1.000000
    7      -13.377743   1.000000
    8      -13.167003   1.000000
    9      -12.335958   1.000000
   10      -11.103666   1.000000
   11       -8.634630   1.000000
   12       -8.434306   1.000000
   13       -6.417652   1.000000
   14       -5.586996   1.000000
   15       -0.135352   0.000000
   16        0.537859   0.000000
   17        0.935171   0.000000
   18        2.381027   0.000000
 
  0.2105263E+00  0.1578947E+00  0.0000000E+00  0.2216066E-01
    1      -28.553268   1.000000
    2      -24.394032   1.000000
    3      -21.706069   1.000000
    4      -19.862604   1.000000
    5      -16.629486   1.000000
    6      -15.603651   1.000000
    7      -13.422238   1.000000
    8      -13.150092   1.000000
    9      -12.167300   1.000000
   10      -10.983632   1.000000
   11       -8.677801   1.000000
   12       -8.346871   1.000000
   13       -6.367128   1.000000
   14       -5.450640   1.000000
   15       -0.095377   0.000000
   16        0.727841   0.000000
   17        1.275769   0.000000
   18        2.613185   0.000000
 
  0.2631579E+00  0.1578947E+00  0.0000000E+00  0.2216066E-01
    1      -28.316769   1.000000
    2      -24.674182   1.000000
    3      -21.832188   1.000000
    4      -19.908056   1.000000
    5      -16.917360   1.000000
    6      -15.496243   1.000000
    7      -13.404338   1.000000
    8      -13.049411   1.000000
    9      -11.963895   1.000000
   10      -10.974188   1.000000
   11       -8.750188   1.000000
   12       -8.191937   1.000000
   13       -6.261521   1.000000
   14       -5.323179   1.000000
   15       -0.027209   0.000000
   16        0.948196   0.000000
   17        1.627670   0.000000
   18        2.877505   0.000000
 
  0.3157895E+00  0.1578947E+00  0.0000000E+00  0.2216066E-01
    1      -28.030729   1.000000
    2      -25.059559   1.000000
    3      -21.809861   1.000000
    4      -20.027418   1.000000
    5      -17.089783   1.000000
    6      -15.608377   1.000000
    7      -13.263537   1.000000
    8      -12.910314   1.000000
    9      -11.778395   1.000000
   10      -11.062308   1.000000
   11       -8.776325   1.000000
   12       -8.052530   1.000000
   13       -6.106805   1.000000
   14       -5.214269   1.000000
   15        0.076347   0.000000
   16        1.217949   0.000000
   17        1.807433   0.000000
   18        3.148672   0.000000
 
  0.3684211E+00  0.1578947E+00  0.0000000E+00  0.2216066E-01
    1      -27.697376   1.000000
    2      -25.509431   1.000000
    3      -21.666029   1.000000
    4      -20.236269   1.000000
    5      -17.115912   1.000000
    6      -15.865021   1.000000
    7      -13.046165   1.000000
    8      -12.759281   1.000000
    9      -11.663971   1.000000
   10      -11.215224   1.000000
   11       -8.712200   1.000000
   12       -7.990447   1.000000
   13       -5.903752   1.000000
   14       -5.147641   1.000000
   15        0.224210   0.000000
   16        1.497270   0.000000
   17        1.732334   0.000000
   18        3.459525   0.000000
 
  0.4210526E+00  0.1578947E+00  0.0000000E+00  0.2216066E-01
    1      -27.319943   1.000000
    2      -25.983583   1.000000
    3      -21.435836   1.000000
    4      -20.516873   1.000000
    5      -17.004686   1.000000
    6      -16.181882   1.000000
    7      -12.817560   1.000000
    8      -12.628524   1.000000
    9      -11.628213   1.000000
   10      -11.392272   1.000000
   11       -8.558641   1.000000
   12       -8.032358   1.000000
   13       -5.666175   1.000000
   14       -5.153374   1.000000
   15        0.424128   0.000000
   16        1.325412   0.000000
   17        1.990256   0.000000
   18        3.467607   0.000000
 
  0.4736842E+00  0.1578947E+00  0.0000000E+00  0.2216066E-01
    1      -26.903138   1.000000
    2      -26.454017   1.000000
    3      -21.149198   1.000000
    4      -20.833051   1.000000
    5      -16.788359   1.000000
    6      -16.502661   1.000000
    7      -12.638104   1.000000
    8      -12.570401   1.000000
    9      -11.614514   1.000000
   10      -11.541630   1.000000
   11       -8.358342   1.000000
   12       -8.166759   1.000000
   13       -5.432583   1.000000
   14       -5.250482   1.000000
   15        0.680918   0.000000
   16        0.990802   0.000000
   17        2.436306   0.000000
   18        2.942239   0.000000
 
  0.2105263E+00  0.2105263E+00  0.0000000E+00  0.1108033E-01
    1      -28.368766   1.000000
    2      -24.470484   1.000000
    3      -22.019803   1.000000
    4      -19.932778   1.000000
    5      -16.921460   1.000000
    6      -15.355609   1.000000
    7      -13.505282   1.000000
    8      -13.037129   1.000000
    9      -12.037095   1.000000
   10      -10.760086   1.000000
   11       -8.785952   1.000000
   12       -8.261179   1.000000
   13       -6.301710   1.000000
   14       -5.327598   1.000000
   15       -0.028190   0.000000
   16        0.988676   0.000000
   17        1.551035   0.000000
   18        2.787073   0.000000
 
  0.2631579E+00  0.2105263E+00  0.0000000E+00  0.2216066E-01
    1      -28.133436   1.000000
    2      -24.657825   1.000000
    3      -22.213416   1.000000
    4      -20.059717   1.000000
    5      -17.136983   1.000000
    6      -15.302997   1.000000
    7      -13.536960   1.000000
    8      -12.805715   1.000000
    9      -11.916837   1.000000
   10      -10.648522   1.000000
   11       -8.856743   1.000000
   12       -8.127893   1.000000
   13       -6.189269   1.000000
   14       -5.223145   1.000000
   15        0.067797   0.000000
   16        1.250597   0.000000
   17        1.886787   0.000000
   18        2.964689   0.000000
 
  0.3157895E+00  0.2105263E+00  0.0000000E+00  0.2216066E-01
    1      -27.849044   1.000000
    2      -24.973059   1.000000
    3      -22.240277   1.000000
    4      -20.270254   1.000000
    5      -17.225051   1.000000
    6      -15.461317   1.000000
    7      -13.438310   1.000000
    8      -12.563246   1.000000
    9      -11.820781   1.000000
   10      -10.661239   1.000000
   11       -8.840240   1.000000
   12       -7.992193   1.000000
   13       -6.034496   1.000000
   14       -5.143287   1.000000
   15        0.199511   0.000000
   16        1.521047   0.000000
   17        2.121096   0.000000
   18        3.118519   0.000000
 
  0.3684211E+00  0.2105263E+00  0.0000000E+00  0.2216066E-01
    1      -27.517966   1.000000
    2      -25.381293   1.000000
    3      -22.118915   1.000000
    4      -20.560391   1.000000
    5      -17.174601   1.000000
    6      -15.751388   1.000000
    7      -13.246184   1.000000
    8      -12.400165   1.000000
    9      -11.732481   1.000000
   10      -10.772944   1.000000
   11       -8.716230   1.000000
   12       -7.917163   1.000000
   13       -5.838481   1.000000
   14       -5.101551   1.000000
   15        0.375275   0.000000
   16        1.756419   0.000000
   17        2.097535   0.000000
   18        3.381809   0.000000
 
  0.4210526E+00  0.2105263E+00  0.0000000E+00  0.2216066E-01
    1      -27.143787   1.000000
    2      -25.832669   1.000000
    3      -21.891694   1.000000
    4      -20.900530   1.000000
    5      -17.006394   1.000000
    6      -16.093393   1.000000
    7      -13.010343   1.000000
    8      -12.399752   1.000000
    9      -11.587924   1.000000
   10      -10.948893   1.000000
   11       -8.511093   1.000000
   12       -7.944659   1.000000
   13       -5.612601   1.000000
   14       -5.120153   1.000000
   15        0.603476   0.000000
   16        1.592734   0.000000
   17        2.288992   0.000000
   18        3.551056   0.000000
 
  0.4736842E+00  0.2105263E+00  0.0000000E+00  0.2216066E-01
    1      -26.731814   1.000000
    2      -26.290328   1.000000
    3      -21.594558   1.000000
    4      -21.255386   1.000000
    5      -16.751071   1.000000
    6      -16.437545   1.000000
    7      -12.765494   1.000000
    8      -12.545368   1.000000
    9      -11.382976   1.000000
   10      -11.160177   1.000000
   11       -8.279050   1.000000
   12       -8.075178   1.000000
   13       -5.391080   1.000000
   14       -5.217402   1.000000
   15        0.890810   0.000000
   16        1.233330   0.000000
   17        2.675469   0.000000
   18        3.115327   0.000000
 
  0.2631579E+00  0.2631579E+00  0.0000000E+00  0.1108033E-01
    1      -27.899836   1.000000
    2      -24.719065   1.000000
    3      -22.511697   1.000000
    4      -20.285552   1.000000
    5      -17.261524   1.000000
    6      -15.241933   1.000000
    7      -13.690289   1.000000
    8      -12.404815   1.000000
    9      -11.936344   1.000000
   10      -10.409926   1.000000
   11       -8.889893   1.000000
   12       -8.034796   1.000000
   13       -6.076565   1.000000
   14       -5.142327   1.000000
   15        0.181436   0.000000
   16        1.571643   0.000000
   17        2.200370   0.000000
   18        3.041553   0.000000
 
  0.3157895E+00  0.2631579E+00  0.0000000E+00  0.2216066E-01
    1      -27.617794   1.000000
    2      -24.914295   1.000000
    3      -22.639893   1.000000
    4      -20.591088   1.000000
    5      -17.261025   1.000000
    6      -15.360808   1.000000
    7      -13.704725   1.000000
    8      -12.129103   1.000000
    9      -11.892405   1.000000
   10      -10.304782   1.000000
   11       -8.819041   1.000000
   12       -7.927745   1.000000
   13       -5.925833   1.000000
   14       -5.087060   1.000000
   15        0.325758   0.000000
   16        1.868448   0.000000
   17        2.480410   0.000000
   18        3.116735   0.000000
 
  0.3684211E+00  0.2631579E+00  0.0000000E+00  0.2216066E-01
    1      -27.290088   1.000000
    2      -25.243742   1.000000
    3      -22.579906   1.000000
    4      -20.954815   1.000000
    5      -17.142085   1.000000
    6      -15.627705   1.000000
    7      -13.573258   1.000000
    8      -12.276729   1.000000
    9      -11.535148   1.000000
   10      -10.328758   1.000000
   11       -8.648165   1.000000
   12       -7.855567   1.000000
   13       -5.741224   1.000000
   14       -5.065437   1.000000
   15        0.514767   0.000000
   16        2.055631   0.000000
   17        2.530731   0.000000
   18        3.315021   0.000000
 
  0.4210526E+00  0.2631579E+00  0.0000000E+00  0.2216066E-01
    1      -26.920869   1.000000
    2      -25.652603   1.000000
    3      -22.377151   1.000000
    4      -21.344075   1.000000
    5      -16.928326   1.000000
    6      -15.964893   1.000000
    7      -13.351203   1.000000
    8      -12.519026   1.000000
    9      -11.191492   1.000000
   10      -10.451835   1.000000
   11       -8.416473   1.000000
   12       -7.868107   1.000000
   13       -5.535241   1.000000
   14       -5.092046   1.000000
   15        0.762068   0.000000
   16        1.852389   0.000000
   17        2.686349   0.000000
   18        3.647217   0.000000
 
  0.4736842E+00  0.2631579E+00  0.0000000E+00  0.2216066E-01
    1      -26.516576   1.000000
    2      -26.087745   1.000000
    3      -22.081670   1.000000
    4      -21.728439   1.000000
    5      -16.644978   1.000000
    6      -16.315489   1.000000
    7      -13.082854   1.000000
    8      -12.797159   1.000000
    9      -10.894662   1.000000
   10      -10.646030   1.000000
   11       -8.177517   1.000000
   12       -7.981668   1.000000
   13       -5.337023   1.000000
   14       -5.182154   1.000000
   15        1.077718   0.000000
   16        1.457026   0.000000
   17        3.002917   0.000000
   18        3.355496   0.000000
 
  0.3157895E+00  0.3157895E+00  0.0000000E+00  0.1108033E-01
    1      -27.339162   1.000000
    2      -24.948707   1.000000
    3      -22.912365   1.000000
    4      -20.975094   1.000000
    5      -17.187911   1.000000