       N       E                     dE             d eps       ncg     rms          rms(c)
DAV:   1    -0.500242405371E+02   -0.50024E+02   -0.66234E+00  2508   0.176E+01
DAV:   2    -0.500432988965E+02   -0.19058E-01   -0.19058E-01  2448   0.400E+00
DAV:   3    -0.500436230447E+02   -0.32415E-03   -0.32415E-03  2874   0.466E-01
DAV:   4    -0.500436321919E+02   -0.91472E-05   -0.91470E-05  2706   0.747E-02
DAV:   5    -0.500436323891E+02   -0.19721E-06   -0.19721E-06  1932   0.107E-02    0.118E+01
DAV:   6    -0.483536690402E+02    0.16900E+01   -0.37849E+00  2556   0.132E+01    0.634E+00
DAV:   7    -0.480814025691E+02    0.27227E+00   -0.76197E-01  2502   0.644E+00    0.235E+00
DAV:   8    -0.480830212938E+02   -0.16187E-02   -0.79144E-02  2604   0.218E+00    0.602E-01
DAV:   9    -0.480816889991E+02    0.13323E-02   -0.12074E-02  2448   0.871E-01    0.105E-01
DAV:  10    -0.480818727627E+02   -0.18376E-03   -0.85183E-04  2556   0.237E-01    0.334E-02
DAV:  11    -0.480819676629E+02   -0.94900E-04   -0.71157E-05  2418   0.668E-02    0.147E-02
DAV:  12    -0.480820574097E+02   -0.89747E-04   -0.18816E-05  1836   0.369E-02    0.354E-03
DAV:  13    -0.480820880098E+02   -0.30600E-04   -0.37993E-06  1860   0.142E-02    0.243E-03
DAV:  14    -0.480821524410E+02   -0.64431E-04   -0.20693E-06  1734   0.107E-02    0.215E-03
DAV:  15    -0.480821682104E+02   -0.15769E-04   -0.42438E-07  1848   0.446E-03    0.157E-03
DAV:  16    -0.480821827848E+02   -0.14574E-04   -0.53469E-07  1794   0.464E-03    0.543E-04
DAV:  17    -0.480821845297E+02   -0.17449E-05   -0.96750E-08  1806   0.244E-03
   1 F= -.48082185E+02 E0= -.48082185E+02  d E =-.241151E-18
