   6   6   1   0
  0.4418861E+02  0.3315000E-09  0.3315000E-09  0.2412651E-08  0.2500000E-15
  1.000000000000000E-004
  CAR 
 unknown system                          
      5.40322935    -30.86838660  301     -4.74526653      1.00000000
    -30.868  0.0000E+00  0.0000E+00
    -30.747  0.0000E+00  0.0000E+00
    -30.627  0.0000E+00  0.0000E+00
    -30.506  0.0000E+00  0.0000E+00
    -30.385  0.0000E+00  0.0000E+00
    -30.264  0.0000E+00  0.0000E+00
    -30.143  0.0000E+00  0.0000E+00
    -30.022  0.0000E+00  0.0000E+00
    -29.901  0.0000E+00  0.0000E+00
    -29.780  0.0000E+00  0.0000E+00
    -29.659  0.0000E+00  0.0000E+00
    -29.538  0.0000E+00  0.0000E+00
    -29.418  0.5220E-09  0.6311E-10
    -29.297  0.1002E-02  0.1211E-03
    -29.176  0.2459E+00  0.2985E-01
    -29.055  0.6532E+00  0.1088E+00
    -28.934  0.6746E+00  0.1904E+00
    -28.813  0.5571E+00  0.2577E+00
    -28.692  0.7964E+00  0.3540E+00
    -28.571  0.4445E+00  0.4078E+00
    -28.450  0.8776E+00  0.5139E+00
    -28.329  0.4947E+00  0.5737E+00
    -28.208  0.7619E+00  0.6658E+00
    -28.088  0.7483E+00  0.7563E+00
    -27.967  0.4245E+00  0.8076E+00
    -27.846  0.9717E+00  0.9251E+00
    -27.725  0.5391E+00  0.9903E+00
    -27.604  0.5429E+00  0.1056E+01
    -27.483  0.9733E+00  0.1174E+01
    -27.362  0.5148E+00  0.1236E+01
    -27.241  0.7872E+00  0.1331E+01
    -27.120  0.5292E+00  0.1395E+01
    -26.999  0.9661E+00  0.1512E+01
    -26.879  0.7908E+00  0.1607E+01
    -26.758  0.2293E+00  0.1635E+01
    -26.637  0.1089E+01  0.1767E+01
    -26.516  0.8289E+00  0.1867E+01
    -26.395  0.5756E+00  0.1937E+01
    -26.274  0.7260E+00  0.2024E+01
    -26.153  0.7636E+00  0.2117E+01
    -26.032  0.9702E+00  0.2234E+01
    -25.911  0.8255E+00  0.2334E+01
    -25.790  0.6704E+00  0.2415E+01
    -25.669  0.8230E+00  0.2514E+01
    -25.549  0.1272E+01  0.2668E+01
    -25.428  0.9616E+00  0.2784E+01
    -25.307  0.1046E+01  0.2911E+01
    -25.186  0.1102E+01  0.3044E+01
    -25.065  0.1224E+01  0.3192E+01
    -24.944  0.6876E+00  0.3275E+01
    -24.823  0.4621E+00  0.3331E+01
    -24.702  0.9658E+00  0.3448E+01
    -24.581  0.8487E+00  0.3550E+01
    -24.460  0.1438E+00  0.3568E+01
    -24.339  0.1206E+01  0.3714E+01
    -24.219  0.2543E+00  0.3744E+01
    -24.098  0.8304E+00  0.3845E+01
    -23.977  0.5267E+00  0.3908E+01
    -23.856  0.6502E+00  0.3987E+01
    -23.735  0.1074E+00  0.4000E+01
    -23.614  0.9158E-03  0.4000E+01
    -23.493  0.1516E+00  0.4018E+01
    -23.372  0.5277E+00  0.4082E+01
    -23.251  0.3364E+00  0.4123E+01
    -23.130  0.5462E+00  0.4189E+01
    -23.010  0.5587E+00  0.4257E+01
    -22.889  0.6132E+00  0.4331E+01
    -22.768  0.4062E+00  0.4380E+01
    -22.647  0.6537E+00  0.4459E+01
    -22.526  0.9726E+00  0.4576E+01
    -22.405  0.2605E+00  0.4608E+01
    -22.284  0.5439E+00  0.4674E+01
    -22.163  0.1196E+01  0.4818E+01
    -22.042  0.7415E+00  0.4908E+01
    -21.921  0.2686E+00  0.4940E+01
    -21.800  0.1228E+01  0.5089E+01
    -21.680  0.1093E+01  0.5221E+01
    -21.559  0.6605E+00  0.5301E+01
    -21.438  0.8443E+00  0.5403E+01
    -21.317  0.1562E+01  0.5592E+01
    -21.196  0.1147E+01  0.5730E+01
    -21.075  0.1835E+01  0.5952E+01
    -20.954  0.1302E+01  0.6110E+01
    -20.833  0.1437E+01  0.6283E+01
    -20.712  0.1204E+01  0.6429E+01
    -20.591  0.4217E+00  0.6480E+01
    -20.471  0.1856E+01  0.6704E+01
    -20.350  0.3808E+00  0.6750E+01
    -20.229  0.1303E+01  0.6908E+01
    -20.108  0.7755E+00  0.7002E+01
    -19.987  0.1406E+01  0.7172E+01
    -19.866  0.2284E+01  0.7448E+01
    -19.745  0.3515E+01  0.7873E+01
    -19.624  0.1045E+01  0.7999E+01
    -19.503  0.7187E-02  0.8000E+01
    -19.382  0.6316E-08  0.8000E+01
    -19.261  0.0000E+00  0.8000E+01
    -19.141  0.0000E+00  0.8000E+01
    -19.020  0.0000E+00  0.8000E+01
    -18.899  0.0000E+00  0.8000E+01
    -18.778  0.0000E+00  0.8000E+01
    -18.657  0.0000E+00  0.8000E+01
    -18.536  0.0000E+00  0.8000E+01
    -18.415  0.0000E+00  0.8000E+01
    -18.294  0.0000E+00  0.8000E+01
    -18.173  0.0000E+00  0.8000E+01
    -18.052  0.1853E-10  0.8000E+01
    -17.932  0.1480E-03  0.8000E+01
    -17.811  0.3453E-01  0.8004E+01
    -17.690  0.2805E-01  0.8008E+01
    -17.569  0.1635E+00  0.8027E+01
    -17.448  0.1343E+00  0.8044E+01
    -17.327  0.7004E-01  0.8052E+01
    -17.206  0.1019E+01  0.8175E+01
    -17.085  0.1930E+01  0.8409E+01
    -16.964  0.2003E+01  0.8651E+01
    -16.843  0.2235E+01  0.8921E+01
    -16.722  0.2619E+01  0.9238E+01
    -16.602  0.2260E+01  0.9511E+01
    -16.481  0.1766E+01  0.9724E+01
    -16.360  0.1565E+01  0.9914E+01
    -16.239  0.2280E+01  0.1019E+02
    -16.118  0.1737E+01  0.1040E+02
    -15.997  0.2055E+01  0.1065E+02
    -15.876  0.2773E+01  0.1098E+02
    -15.755  0.1913E+01  0.1121E+02
    -15.634  0.1959E+01  0.1145E+02
    -15.513  0.1537E+01  0.1164E+02
    -15.392  0.1046E+01  0.1176E+02
    -15.272  0.1286E+01  0.1192E+02
    -15.151  0.3365E+00  0.1196E+02
    -15.030  0.2505E+00  0.1199E+02
    -14.909  0.8192E-01  0.1200E+02
    -14.788  0.1892E-02  0.1200E+02
    -14.667  0.5776E-08  0.1200E+02
    -14.546  0.0000E+00  0.1200E+02
    -14.425  0.3583E-10  0.1200E+02
    -14.304  0.4168E-03  0.1200E+02
    -14.183  0.1615E+00  0.1202E+02
    -14.063  0.6790E+00  0.1210E+02
    -13.942  0.6191E+00  0.1218E+02
    -13.821  0.9227E+00  0.1229E+02
    -13.700  0.1198E+01  0.1243E+02
    -13.579  0.2173E+01  0.1270E+02
    -13.458  0.3379E+01  0.1310E+02
    -13.337  0.3974E+01  0.1358E+02
    -13.216  0.1582E+01  0.1378E+02
    -13.095  0.2143E+01  0.1403E+02
    -12.974  0.2622E+01  0.1435E+02
    -12.853  0.2388E+01  0.1464E+02
    -12.733  0.4201E+01  0.1515E+02
    -12.612  0.3436E+01  0.1556E+02
    -12.491  0.3185E+01  0.1595E+02
    -12.370  0.2069E+01  0.1620E+02
    -12.249  0.1337E+01  0.1636E+02
    -12.128  0.9016E+00  0.1647E+02
    -12.007  0.8813E+00  0.1658E+02
    -11.886  0.1568E+01  0.1677E+02
    -11.765  0.1538E+01  0.1695E+02
    -11.644  0.2412E+01  0.1724E+02
    -11.524  0.4830E+01  0.1783E+02
    -11.403  0.4249E+01  0.1834E+02
    -11.282  0.1466E+01  0.1852E+02
    -11.161  0.1353E+01  0.1868E+02
    -11.040  0.1005E+01  0.1880E+02
    -10.919  0.1264E+01  0.1896E+02
    -10.798  0.4959E+00  0.1902E+02
    -10.677  0.8939E+00  0.1912E+02
    -10.556  0.1164E+01  0.1927E+02
    -10.435  0.3403E+00  0.1931E+02
    -10.314  0.9762E+00  0.1942E+02
    -10.194  0.6666E+00  0.1950E+02
    -10.073  0.5193E+00  0.1957E+02
     -9.952  0.8116E+00  0.1967E+02
     -9.831  0.5144E+00  0.1973E+02
     -9.710  0.6386E+00  0.1981E+02
     -9.589  0.5769E+00  0.1987E+02
     -9.468  0.5685E+00  0.1994E+02
     -9.347  0.4287E+00  0.2000E+02
     -9.226  0.3684E-01  0.2000E+02
     -9.105  0.6155E-05  0.2000E+02
     -8.985  0.3973E-01  0.2000E+02
     -8.864  0.8681E+00  0.2011E+02
     -8.743  0.2356E+01  0.2039E+02
     -8.622  0.3373E+01  0.2080E+02
     -8.501  0.3760E+01  0.2126E+02
     -8.380  0.5036E+01  0.2187E+02
     -8.259  0.4138E+01  0.2237E+02
     -8.138  0.3454E+01  0.2278E+02
     -8.017  0.3026E+01  0.2315E+02
     -7.896  0.2837E+01  0.2349E+02
     -7.775  0.2513E+01  0.2380E+02
     -7.655  0.1621E+01  0.2399E+02
     -7.534  0.6142E-01  0.2400E+02
     -7.413  0.9674E-06  0.2400E+02
     -7.292  0.3459E-15  0.2400E+02
     -7.171  0.0000E+00  0.2400E+02
     -7.050  0.0000E+00  0.2400E+02
     -6.929  0.0000E+00  0.2400E+02
     -6.808  0.0000E+00  0.2400E+02
     -6.687  0.2635E-14  0.2400E+02
     -6.566  0.3628E-05  0.2400E+02
     -6.445  0.1177E+00  0.2401E+02
     -6.325  0.2417E+01  0.2431E+02
     -6.204  0.2399E+01  0.2460E+02
     -6.083  0.2025E+01  0.2484E+02
     -5.962  0.1495E+01  0.2502E+02
     -5.841  0.2087E+01  0.2527E+02
     -5.720  0.1574E+01  0.2546E+02
     -5.599  0.2238E+01  0.2574E+02
     -5.478  0.2071E+01  0.2599E+02
     -5.357  0.2899E+01  0.2634E+02
     -5.236  0.4159E+01  0.2684E+02
     -5.116  0.6023E+01  0.2757E+02
     -4.995  0.3504E+01  0.2799E+02
     -4.874  0.7460E-01  0.2800E+02
     -4.753  0.4035E-06  0.2800E+02
     -4.632  0.0000E+00  0.2800E+02
     -4.511  0.0000E+00  0.2800E+02
     -4.390  0.0000E+00  0.2800E+02
     -4.269  0.0000E+00  0.2800E+02
     -4.148  0.0000E+00  0.2800E+02
     -4.027  0.0000E+00  0.2800E+02
     -3.906  0.0000E+00  0.2800E+02
     -3.786  0.0000E+00  0.2800E+02
     -3.665  0.0000E+00  0.2800E+02
     -3.544  0.0000E+00  0.2800E+02
     -3.423  0.0000E+00  0.2800E+02
     -3.302  0.0000E+00  0.2800E+02
     -3.181  0.0000E+00  0.2800E+02
     -3.060  0.0000E+00  0.2800E+02
     -2.939  0.0000E+00  0.2800E+02
     -2.818  0.0000E+00  0.2800E+02
     -2.697  0.0000E+00  0.2800E+02
     -2.577  0.0000E+00  0.2800E+02
     -2.456  0.0000E+00  0.2800E+02
     -2.335  0.0000E+00  0.2800E+02
     -2.214  0.0000E+00  0.2800E+02
     -2.093  0.0000E+00  0.2800E+02
     -1.972  0.0000E+00  0.2800E+02
     -1.851  0.0000E+00  0.2800E+02
     -1.730  0.0000E+00  0.2800E+02
     -1.609  0.0000E+00  0.2800E+02
     -1.488  0.0000E+00  0.2800E+02
     -1.367  0.0000E+00  0.2800E+02
     -1.247  0.0000E+00  0.2800E+02
     -1.126  0.0000E+00  0.2800E+02
     -1.005  0.0000E+00  0.2800E+02
     -0.884  0.0000E+00  0.2800E+02
     -0.763  0.0000E+00  0.2800E+02
     -0.642  0.0000E+00  0.2800E+02
     -0.521  0.0000E+00  0.2800E+02
     -0.400  0.1394E-08  0.2800E+02
     -0.279  0.2880E-02  0.2800E+02
     -0.158  0.1678E+01  0.2820E+02
     -0.038  0.4188E+01  0.2871E+02
      0.083  0.2623E+01  0.2903E+02
      0.204  0.2042E+01  0.2927E+02
      0.325  0.2429E+01  0.2957E+02
      0.446  0.1862E+01  0.2979E+02
      0.567  0.1989E+01  0.3003E+02
      0.688  0.2180E+01  0.3030E+02
      0.809  0.1867E+01  0.3052E+02
      0.930  0.1908E+01  0.3075E+02
      1.051  0.2248E+01  0.3102E+02
      1.172  0.1652E+01  0.3122E+02
      1.292  0.2641E+01  0.3154E+02
      1.413  0.2168E+01  0.3181E+02
      1.534  0.2010E+01  0.3205E+02
      1.655  0.2039E+01  0.3230E+02
      1.776  0.1919E+01  0.3253E+02
      1.897  0.2575E+01  0.3284E+02
      2.018  0.1427E+01  0.3301E+02
      2.139  0.1901E+01  0.3324E+02
      2.260  0.2002E+01  0.3348E+02
      2.381  0.1591E+01  0.3368E+02
      2.502  0.1355E+01  0.3384E+02
      2.622  0.7613E+00  0.3393E+02
      2.743  0.1490E+01  0.3411E+02
      2.864  0.1538E+01  0.3430E+02
      2.985  0.1212E+01  0.3444E+02
      3.106  0.1864E+01  0.3467E+02
      3.227  0.1820E+01  0.3489E+02
      3.348  0.1215E+01  0.3504E+02
      3.469  0.2660E+01  0.3536E+02
      3.590  0.2331E+01  0.3564E+02
      3.711  0.2185E+01  0.3590E+02
      3.831  0.7886E+00  0.3600E+02
      3.952  0.7450E-02  0.3600E+02
      4.073  0.4479E-08  0.3600E+02
      4.194  0.0000E+00  0.3600E+02
      4.315  0.0000E+00  0.3600E+02
      4.436  0.0000E+00  0.3600E+02
      4.557  0.0000E+00  0.3600E+02
      4.678  0.0000E+00  0.3600E+02
      4.799  0.0000E+00  0.3600E+02
      4.920  0.0000E+00  0.3600E+02
      5.041  0.0000E+00  0.3600E+02
      5.161  0.0000E+00  0.3600E+02
      5.282  0.0000E+00  0.3600E+02
      5.403  0.0000E+00  0.3600E+02
      5.40322935    -30.86838660  301     -4.74526653      1.00000000
    -30.868  0.0000E+00  0.0000E+00  0.0000E+00
    -30.747  0.0000E+00  0.0000E+00  0.0000E+00
    -30.627  0.0000E+00  0.0000E+00  0.0000E+00
    -30.506  0.0000E+00  0.0000E+00  0.0000E+00
    -30.385  0.0000E+00  0.0000E+00  0.0000E+00
    -30.264  0.0000E+00  0.0000E+00  0.0000E+00
    -30.143  0.0000E+00  0.0000E+00  0.0000E+00
    -30.022  0.0000E+00  0.0000E+00  0.0000E+00
    -29.901  0.0000E+00  0.0000E+00  0.0000E+00
    -29.780  0.0000E+00  0.0000E+00  0.0000E+00
    -29.659  0.0000E+00  0.0000E+00  0.0000E+00
    -29.538  0.0000E+00  0.0000E+00  0.0000E+00
    -29.418  0.5396E-10  0.4464E-14  0.0000E+00
    -29.297  0.1035E-03  0.8009E-07  0.0000E+00
    -29.176  0.2534E-01  0.7086E-04  0.0000E+00
    -29.055  0.6677E-01  0.5953E-03  0.0000E+00
    -28.934  0.6797E-01  0.1361E-02  0.0000E+00
    -28.813  0.5543E-01  0.1643E-02  0.0000E+00
    -28.692  0.7807E-01  0.3218E-02  0.0000E+00
    -28.571  0.4289E-01  0.2284E-02  0.0000E+00
    -28.450  0.8363E-01  0.5265E-02  0.0000E+00
    -28.329  0.4627E-01  0.3574E-02  0.0000E+00
    -28.208  0.7022E-01  0.6218E-02  0.0000E+00
    -28.088  0.6778E-01  0.6897E-02  0.0000E+00
    -27.967  0.3775E-01  0.4372E-02  0.0000E+00
    -27.846  0.8465E-01  0.1114E-01  0.0000E+00
    -27.725  0.4641E-01  0.6521E-02  0.0000E+00
    -27.604  0.4537E-01  0.7416E-02  0.0000E+00
    -27.483  0.7991E-01  0.1413E-01  0.0000E+00
    -27.362  0.4155E-01  0.7884E-02  0.0000E+00
    -27.241  0.6149E-01  0.1326E-01  0.0000E+00
    -27.120  0.4020E-01  0.9504E-02  0.0000E+00
    -26.999  0.7206E-01  0.1806E-01  0.0000E+00
    -26.879  0.5681E-01  0.1595E-01  0.0000E+00
    -26.758  0.1605E-01  0.4827E-02  0.0000E+00
    -26.637  0.7305E-01  0.2455E-01  0.0000E+00
    -26.516  0.5462E-01  0.1913E-01  0.0000E+00
    -26.395  0.3618E-01  0.1416E-01  0.0000E+00
    -26.274  0.4138E-01  0.1996E-01  0.0000E+00
    -26.153  0.4432E-01  0.2023E-01  0.0000E+00
    -26.032  0.5275E-01  0.2735E-01  0.0000E+00
    -25.911  0.3978E-01  0.2564E-01  0.0000E+00
    -25.790  0.2987E-01  0.2180E-01  0.0000E+00
    -25.669  0.3275E-01  0.2784E-01  0.0000E+00
    -25.549  0.4950E-01  0.4332E-01  0.0000E+00
    -25.428  0.2569E-01  0.3748E-01  0.0000E+00
    -25.307  0.1726E-01  0.4496E-01  0.0000E+00
    -25.186  0.2260E-01  0.4407E-01  0.0000E+00
    -25.065  0.2649E-01  0.4713E-01  0.0000E+00
    -24.944  0.1142E-01  0.2712E-01  0.0000E+00
    -24.823  0.3499E-02  0.1967E-01  0.0000E+00
    -24.702  0.1743E-01  0.3443E-01  0.0000E+00
    -24.581  0.8879E-02  0.3251E-01  0.0000E+00
    -24.460  0.2245E-03  0.5528E-02  0.0000E+00
    -24.339  0.9277E-02  0.4220E-01  0.0000E+00
    -24.219  0.1105E-02  0.8788E-02  0.0000E+00
    -24.098  0.2196E-02  0.2682E-01  0.0000E+00
    -23.977  0.6695E-03  0.1598E-01  0.0000E+00
    -23.856  0.2420E-03  0.1843E-01  0.0000E+00
    -23.735  0.3865E-05  0.2914E-02  0.0000E+00
    -23.614  0.1401E-03  0.3124E-05  0.0000E+00
    -23.493  0.2415E-01  0.3836E-03  0.0000E+00
    -23.372  0.8034E-01  0.2819E-02  0.0000E+00
    -23.251  0.5008E-01  0.2319E-02  0.0000E+00
    -23.130  0.7924E-01  0.5077E-02  0.0000E+00
    -23.010  0.7316E-01  0.7402E-02  0.0000E+00
    -22.889  0.8524E-01  0.8016E-02  0.0000E+00
    -22.768  0.5200E-01  0.6236E-02  0.0000E+00
    -22.647  0.7732E-01  0.1280E-01  0.0000E+00
    -22.526  0.1191E+00  0.1841E-01  0.0000E+00
    -22.405  0.3223E-01  0.5400E-02  0.0000E+00
    -22.284  0.5775E-01  0.1240E-01  0.0000E+00
    -22.163  0.1336E+00  0.3022E-01  0.0000E+00
    -22.042  0.7708E-01  0.1796E-01  0.0000E+00
    -21.921  0.2957E-01  0.7557E-02  0.0000E+00
    -21.800  0.1191E+00  0.3499E-01  0.0000E+00
    -21.680  0.1063E+00  0.3479E-01  0.0000E+00
    -21.559  0.5961E-01  0.1863E-01  0.0000E+00
    -21.438  0.7653E-01  0.2776E-01  0.0000E+00
    -21.317  0.1329E+00  0.5498E-01  0.0000E+00
    -21.196  0.9019E-01  0.3986E-01  0.0000E+00
    -21.075  0.1475E+00  0.7040E-01  0.0000E+00
    -20.954  0.9229E-01  0.4758E-01  0.0000E+00
    -20.833  0.9872E-01  0.6464E-01  0.0000E+00
    -20.712  0.7903E-01  0.4906E-01  0.0000E+00
    -20.591  0.2321E-01  0.1948E-01  0.0000E+00
    -20.471  0.1026E+00  0.9264E-01  0.0000E+00
    -20.350  0.2029E-01  0.2152E-01  0.0000E+00
    -20.229  0.5600E-01  0.7191E-01  0.0000E+00
    -20.108  0.3176E-01  0.4720E-01  0.0000E+00
    -19.987  0.4362E-01  0.9379E-01  0.0000E+00
    -19.866  0.3084E-01  0.1959E+00  0.0000E+00
    -19.745  0.3640E-01  0.3164E+00  0.0000E+00
    -19.624  0.1128E-01  0.9214E-01  0.0000E+00
    -19.503  0.7270E-04  0.6197E-03  0.0000E+00
    -19.382  0.5778E-10  0.5509E-09  0.0000E+00
    -19.261  0.0000E+00  0.0000E+00  0.0000E+00
    -19.141  0.0000E+00  0.0000E+00  0.0000E+00
    -19.020  0.0000E+00  0.0000E+00  0.0000E+00
    -18.899  0.0000E+00  0.0000E+00  0.0000E+00
    -18.778  0.0000E+00  0.0000E+00  0.0000E+00
    -18.657  0.0000E+00  0.0000E+00  0.0000E+00
    -18.536  0.0000E+00  0.0000E+00  0.0000E+00
    -18.415  0.0000E+00  0.0000E+00  0.0000E+00
    -18.294  0.0000E+00  0.0000E+00  0.0000E+00
    -18.173  0.0000E+00  0.0000E+00  0.0000E+00
    -18.052  0.4536E-11  0.2952E-37  0.0000E+00
    -17.932  0.3622E-04  0.3664E-18  0.0000E+00
    -17.811  0.8451E-02  0.2274E-08  0.0000E+00
    -17.690  0.6479E-02  0.2030E-03  0.0000E+00
    -17.569  0.3628E-01  0.1966E-02  0.0000E+00
    -17.448  0.2770E-01  0.2752E-02  0.0000E+00
    -17.327  0.1139E-01  0.2444E-02  0.0000E+00
    -17.206  0.5511E-01  0.7165E-01  0.0000E+00
    -17.085  0.9809E-01  0.1349E+00  0.0000E+00
    -16.964  0.1021E+00  0.1446E+00  0.0000E+00
    -16.843  0.9064E-01  0.1559E+00  0.0000E+00
    -16.722  0.1129E+00  0.2020E+00  0.0000E+00
    -16.602  0.1399E+00  0.1453E+00  0.0000E+00
    -16.481  0.7446E-01  0.1370E+00  0.0000E+00
    -16.360  0.6782E-01  0.1117E+00  0.0000E+00
    -16.239  0.1337E+00  0.1589E+00  0.0000E+00
    -16.118  0.8498E-01  0.1295E+00  0.0000E+00
    -15.997  0.1221E+00  0.1364E+00  0.0000E+00
    -15.876  0.1970E+00  0.1797E+00  0.0000E+00
    -15.755  0.8241E-01  0.1511E+00  0.0000E+00
    -15.634  0.9395E-01  0.1342E+00  0.0000E+00
    -15.513  0.8119E-01  0.1121E+00  0.0000E+00
    -15.392  0.5258E-01  0.7280E-01  0.0000E+00
    -15.272  0.6846E-01  0.8316E-01  0.0000E+00
    -15.151  0.1853E-01  0.1969E-01  0.0000E+00
    -15.030  0.1729E-01  0.1119E-02  0.0000E+00
    -14.909  0.5688E-02  0.1201E-03  0.0000E+00
    -14.788  0.1317E-03  0.7369E-08  0.0000E+00
    -14.667  0.4020E-09  0.7050E-17  0.0000E+00
    -14.546  0.0000E+00  0.0000E+00  0.0000E+00
    -14.425  0.1140E-14  0.2336E-11  0.0000E+00
    -14.304  0.1342E-07  0.2717E-04  0.0000E+00
    -14.183  0.1430E-04  0.1055E-01  0.0000E+00
    -14.063  0.5066E-03  0.4563E-01  0.0000E+00
    -13.942  0.1048E-02  0.4250E-01  0.0000E+00
    -13.821  0.2168E-02  0.6606E-01  0.0000E+00
    -13.700  0.1319E-01  0.1107E+00  0.0000E+00
    -13.579  0.3601E-01  0.2511E+00  0.0000E+00
    -13.458  0.4701E-01  0.3860E+00  0.0000E+00
    -13.337  0.5846E-01  0.4892E+00  0.0000E+00
    -13.216  0.3874E-01  0.2122E+00  0.0000E+00
    -13.095  0.2982E-01  0.2348E+00  0.0000E+00
    -12.974  0.4302E-01  0.2663E+00  0.0000E+00
    -12.853  0.2655E-01  0.2115E+00  0.0000E+00
    -12.733  0.5624E-01  0.3927E+00  0.0000E+00
    -12.612  0.4306E-01  0.3324E+00  0.0000E+00
    -12.491  0.1533E-01  0.3318E+00  0.0000E+00
    -12.370  0.1368E-01  0.2379E+00  0.0000E+00
    -12.249  0.3649E-02  0.1447E+00  0.0000E+00
    -12.128  0.2547E-02  0.9840E-01  0.0000E+00
    -12.007  0.2628E-02  0.9909E-01  0.0000E+00
    -11.886  0.5480E-02  0.1776E+00  0.0000E+00
    -11.765  0.6035E-02  0.1984E+00  0.0000E+00
    -11.644  0.7296E-02  0.3422E+00  0.0000E+00
    -11.524  0.3037E-01  0.5677E+00  0.0000E+00
    -11.403  0.2806E-01  0.4077E+00  0.0000E+00
    -11.282  0.1224E-01  0.1752E+00  0.0000E+00
    -11.161  0.1576E-01  0.1816E+00  0.0000E+00
    -11.040  0.1447E-01  0.1461E+00  0.0000E+00
    -10.919  0.1149E-01  0.1843E+00  0.0000E+00
    -10.798  0.6813E-02  0.7566E-01  0.0000E+00
    -10.677  0.8684E-02  0.1387E+00  0.0000E+00
    -10.556  0.1349E-01  0.1827E+00  0.0000E+00
    -10.435  0.3548E-02  0.5380E-01  0.0000E+00
    -10.314  0.7581E-02  0.1618E+00  0.0000E+00
    -10.194  0.5801E-02  0.1120E+00  0.0000E+00
    -10.073  0.5095E-02  0.8684E-01  0.0000E+00
     -9.952  0.3875E-02  0.1392E+00  0.0000E+00
     -9.831  0.3553E-02  0.9150E-01  0.0000E+00
     -9.710  0.2710E-02  0.1130E+00  0.0000E+00
     -9.589  0.1821E-02  0.1043E+00  0.0000E+00
     -9.468  0.9776E-03  0.1047E+00  0.0000E+00
     -9.347  0.3612E-03  0.7973E-01  0.0000E+00
     -9.226  0.5109E-05  0.6900E-02  0.0000E+00
     -9.105  0.9367E-09  0.2502E-06  0.0000E+00
     -8.985  0.1025E-04  0.1610E-04  0.0000E+00
     -8.864  0.1615E-02  0.2295E-02  0.0000E+00
     -8.743  0.4082E-02  0.1116E-01  0.0000E+00
     -8.622  0.3008E-02  0.2128E-01  0.0000E+00
     -8.501  0.2641E-02  0.2885E-01  0.0000E+00
     -8.380  0.7663E-02  0.5015E-01  0.0000E+00
     -8.259  0.1605E-01  0.4143E-01  0.0000E+00
     -8.138  0.2088E-01  0.3948E-01  0.0000E+00
     -8.017  0.1449E-01  0.3938E-01  0.0000E+00
     -7.896  0.7776E-02  0.4098E-01  0.0000E+00
     -7.775  0.2343E-02  0.3203E-01  0.0000E+00
     -7.655  0.2932E-03  0.1439E-01  0.0000E+00
     -7.534  0.4866E-05  0.4436E-03  0.0000E+00
     -7.413  0.4068E-10  0.6558E-08  0.0000E+00
     -7.292  0.7442E-20  0.2355E-17  0.0000E+00
     -7.171  0.0000E+00  0.0000E+00  0.0000E+00
     -7.050  0.0000E+00  0.0000E+00  0.0000E+00
     -6.929  0.0000E+00  0.0000E+00  0.0000E+00
     -6.808  0.0000E+00  0.0000E+00  0.0000E+00
     -6.687  0.2077E-16  0.1000E-15  0.0000E+00
     -6.566  0.2609E-07  0.1448E-06  0.0000E+00
     -6.445  0.6783E-03  0.5042E-02  0.0000E+00
     -6.325  0.8210E-02  0.1103E+00  0.0000E+00
     -6.204  0.5935E-02  0.1074E+00  0.0000E+00
     -6.083  0.4391E-02  0.8277E-01  0.0000E+00
     -5.962  0.5030E-02  0.5846E-01  0.0000E+00
     -5.841  0.7156E-02  0.7336E-01  0.0000E+00
     -5.720  0.8175E-02  0.5123E-01  0.0000E+00
     -5.599  0.9573E-02  0.6755E-01  0.0000E+00
     -5.478  0.1341E-01  0.6090E-01  0.0000E+00
     -5.357  0.1692E-01  0.7747E-01  0.0000E+00
     -5.236  0.3778E-01  0.9988E-01  0.0000E+00
     -5.116  0.7491E-01  0.1118E+00  0.0000E+00
     -4.995  0.5011E-01  0.5025E-01  0.0000E+00
     -4.874  0.1031E-02  0.1092E-02  0.0000E+00
     -4.753  0.5472E-08  0.5916E-08  0.0000E+00
     -4.632  0.0000E+00  0.0000E+00  0.0000E+00
     -4.511  0.0000E+00  0.0000E+00  0.0000E+00
     -4.390  0.0000E+00  0.0000E+00  0.0000E+00
     -4.269  0.0000E+00  0.0000E+00  0.0000E+00
     -4.148  0.0000E+00  0.0000E+00  0.0000E+00
     -4.027  0.0000E+00  0.0000E+00  0.0000E+00
     -3.906  0.0000E+00  0.0000E+00  0.0000E+00
     -3.786  0.0000E+00  0.0000E+00  0.0000E+00
     -3.665  0.0000E+00  0.0000E+00  0.0000E+00
     -3.544  0.0000E+00  0.0000E+00  0.0000E+00
     -3.423  0.0000E+00  0.0000E+00  0.0000E+00
     -3.302  0.0000E+00  0.0000E+00  0.0000E+00
     -3.181  0.0000E+00  0.0000E+00  0.0000E+00
     -3.060  0.0000E+00  0.0000E+00  0.0000E+00
     -2.939  0.0000E+00  0.0000E+00  0.0000E+00
     -2.818  0.0000E+00  0.0000E+00  0.0000E+00
     -2.697  0.0000E+00  0.0000E+00  0.0000E+00
     -2.577  0.0000E+00  0.0000E+00  0.0000E+00
     -2.456  0.0000E+00  0.0000E+00  0.0000E+00
     -2.335  0.0000E+00  0.0000E+00  0.0000E+00
     -2.214  0.0000E+00  0.0000E+00  0.0000E+00
     -2.093  0.0000E+00  0.0000E+00  0.0000E+00
     -1.972  0.0000E+00  0.0000E+00  0.0000E+00
     -1.851  0.0000E+00  0.0000E+00  0.0000E+00
     -1.730  0.0000E+00  0.0000E+00  0.0000E+00
     -1.609  0.0000E+00  0.0000E+00  0.0000E+00
     -1.488  0.0000E+00  0.0000E+00  0.0000E+00
     -1.367  0.0000E+00  0.0000E+00  0.0000E+00
     -1.247  0.0000E+00  0.0000E+00  0.0000E+00
     -1.126  0.0000E+00  0.0000E+00  0.0000E+00
     -1.005  0.0000E+00  0.0000E+00  0.0000E+00
     -0.884  0.0000E+00  0.0000E+00  0.0000E+00
     -0.763  0.0000E+00  0.0000E+00  0.0000E+00
     -0.642  0.0000E+00  0.0000E+00  0.0000E+00
     -0.521  0.0000E+00  0.0000E+00  0.0000E+00
     -0.400  0.2650E-12  0.1968E-09  0.0000E+00
     -0.279  0.1726E-05  0.2895E-03  0.0000E+00
     -0.158  0.9011E-03  0.1349E+00  0.0000E+00
     -0.038  0.2131E-02  0.3221E+00  0.0000E+00
      0.083  0.1776E-02  0.2043E+00  0.0000E+00
      0.204  0.2056E-02  0.1579E+00  0.0000E+00
      0.325  0.3742E-02  0.2069E+00  0.0000E+00
      0.446  0.2655E-02  0.1534E+00  0.0000E+00
      0.567  0.4422E-02  0.1531E+00  0.0000E+00
      0.688  0.4746E-02  0.1930E+00  0.0000E+00
      0.809  0.3782E-02  0.1527E+00  0.0000E+00
      0.930  0.6313E-02  0.1427E+00  0.0000E+00
      1.051  0.3967E-02  0.1923E+00  0.0000E+00
      1.172  0.5087E-02  0.1280E+00  0.0000E+00
      1.292  0.7034E-02  0.2126E+00  0.0000E+00
      1.413  0.8073E-02  0.1993E+00  0.0000E+00
      1.534  0.4932E-02  0.1690E+00  0.0000E+00
      1.655  0.9632E-02  0.1698E+00  0.0000E+00
      1.776  0.6136E-02  0.1369E+00  0.0000E+00
      1.897  0.1066E-01  0.1661E+00  0.0000E+00
      2.018  0.1190E-01  0.9614E-01  0.0000E+00
      2.139  0.2065E-02  0.1060E+00  0.0000E+00
      2.260  0.1244E-01  0.1460E+00  0.0000E+00
      2.381  0.2183E-02  0.7276E-01  0.0000E+00
      2.502  0.4822E-02  0.8191E-01  0.0000E+00
      2.622  0.3183E-02  0.5553E-01  0.0000E+00
      2.743  0.4577E-02  0.8002E-01  0.0000E+00
      2.864  0.2477E-01  0.1157E+00  0.0000E+00
      2.985  0.3139E-01  0.8850E-01  0.0000E+00
      3.106  0.5174E-01  0.9154E-01  0.0000E+00
      3.227  0.7522E-01  0.7902E-01  0.0000E+00
      3.348  0.8823E-01  0.7647E-01  0.0000E+00
      3.469  0.1038E+00  0.2221E+00  0.0000E+00
      3.590  0.9143E-01  0.1552E+00  0.0000E+00
      3.711  0.1452E+00  0.1799E+00  0.0000E+00
      3.831  0.3353E-01  0.7751E-01  0.0000E+00
      3.952  0.2409E-03  0.7072E-03  0.0000E+00
      4.073  0.1147E-09  0.3888E-09  0.0000E+00
      4.194  0.0000E+00  0.0000E+00  0.0000E+00
      4.315  0.0000E+00  0.0000E+00  0.0000E+00
      4.436  0.0000E+00  0.0000E+00  0.0000E+00
      4.557  0.0000E+00  0.0000E+00  0.0000E+00
      4.678  0.0000E+00  0.0000E+00  0.0000E+00
      4.799  0.0000E+00  0.0000E+00  0.0000E+00
      4.920  0.0000E+00  0.0000E+00  0.0000E+00
      5.041  0.0000E+00  0.0000E+00  0.0000E+00
      5.161  0.0000E+00  0.0000E+00  0.0000E+00
      5.282  0.0000E+00  0.0000E+00  0.0000E+00
      5.403  0.0000E+00  0.0000E+00  0.0000E+00
      5.40322935    -30.86838660  301     -4.74526653      1.00000000
    -30.868  0.0000E+00  0.0000E+00  0.0000E+00
    -30.747  0.0000E+00  0.0000E+00  0.0000E+00
    -30.627  0.0000E+00  0.0000E+00  0.0000E+00
    -30.506  0.0000E+00  0.0000E+00  0.0000E+00
    -30.385  0.0000E+00  0.0000E+00  0.0000E+00
    -30.264  0.0000E+00  0.0000E+00  0.0000E+00
    -30.143  0.0000E+00  0.0000E+00  0.0000E+00
    -30.022  0.0000E+00  0.0000E+00  0.0000E+00
    -29.901  0.0000E+00  0.0000E+00  0.0000E+00
    -29.780  0.0000E+00  0.0000E+00  0.0000E+00
    -29.659  0.0000E+00  0.0000E+00  0.0000E+00
    -29.538  0.0000E+00  0.0000E+00  0.0000E+00
    -29.418  0.5396E-10  0.4464E-14  0.0000E+00
    -29.297  0.1035E-03  0.8009E-07  0.0000E+00
    -29.176  0.2534E-01  0.7086E-04  0.0000E+00
    -29.055  0.6677E-01  0.5955E-03  0.0000E+00
    -28.934  0.6797E-01  0.1362E-02  0.0000E+00
    -28.813  0.5543E-01  0.1645E-02  0.0000E+00
    -28.692  0.7807E-01  0.3222E-02  0.0000E+00
    -28.571  0.4289E-01  0.2289E-02  0.0000E+00
    -28.450  0.8363E-01  0.5279E-02  0.0000E+00
    -28.329  0.4627E-01  0.3584E-02  0.0000E+00
    -28.208  0.7021E-01  0.6237E-02  0.0000E+00
    -28.088  0.6778E-01  0.6927E-02  0.0000E+00
    -27.967  0.3774E-01  0.4398E-02  0.0000E+00
    -27.846  0.8464E-01  0.1118E-01  0.0000E+00
    -27.725  0.4639E-01  0.6569E-02  0.0000E+00
    -27.604  0.4535E-01  0.7466E-02  0.0000E+00
    -27.483  0.7988E-01  0.1421E-01  0.0000E+00
    -27.362  0.4152E-01  0.7951E-02  0.0000E+00
    -27.241  0.6145E-01  0.1337E-01  0.0000E+00
    -27.120  0.4017E-01  0.9586E-02  0.0000E+00
    -26.999  0.7200E-01  0.1820E-01  0.0000E+00
    -26.879  0.5674E-01  0.1614E-01  0.0000E+00
    -26.758  0.1603E-01  0.4894E-02  0.0000E+00
    -26.637  0.7301E-01  0.2467E-01  0.0000E+00
    -26.516  0.5463E-01  0.1910E-01  0.0000E+00
    -26.395  0.3620E-01  0.1409E-01  0.0000E+00
    -26.274  0.4140E-01  0.1991E-01  0.0000E+00
    -26.153  0.4433E-01  0.2019E-01  0.0000E+00
    -26.032  0.5286E-01  0.2700E-01  0.0000E+00
    -25.911  0.3981E-01  0.2552E-01  0.0000E+00
    -25.790  0.3000E-01  0.2140E-01  0.0000E+00
    -25.669  0.3280E-01  0.2770E-01  0.0000E+00
    -25.549  0.4966E-01  0.4277E-01  0.0000E+00
    -25.428  0.2583E-01  0.3700E-01  0.0000E+00
    -25.307  0.1739E-01  0.4452E-01  0.0000E+00
    -25.186  0.2271E-01  0.4365E-01  0.0000E+00
    -25.065  0.2662E-01  0.4659E-01  0.0000E+00
    -24.944  0.1152E-01  0.2670E-01  0.0000E+00
    -24.823  0.3552E-02  0.1945E-01  0.0000E+00
    -24.702  0.1749E-01  0.3414E-01  0.0000E+00
    -24.581  0.8959E-02  0.3209E-01  0.0000E+00
    -24.460  0.2262E-03  0.5517E-02  0.0000E+00
    -24.339  0.9325E-02  0.4188E-01  0.0000E+00
    -24.219  0.1110E-02  0.8750E-02  0.0000E+00
    -24.098  0.2209E-02  0.2672E-01  0.0000E+00
    -23.977  0.6722E-03  0.1596E-01  0.0000E+00
    -23.856  0.2429E-03  0.1842E-01  0.0000E+00
    -23.735  0.3866E-05  0.2914E-02  0.0000E+00
    -23.614  0.1401E-03  0.3124E-05  0.0000E+00
    -23.493  0.2415E-01  0.3837E-03  0.0000E+00
    -23.372  0.8033E-01  0.2917E-02  0.0000E+00
    -23.251  0.5006E-01  0.2521E-02  0.0000E+00
    -23.130  0.7921E-01  0.5362E-02  0.0000E+00
    -23.010  0.7314E-01  0.7726E-02  0.0000E+00
    -22.889  0.8520E-01  0.8822E-02  0.0000E+00
    -22.768  0.5197E-01  0.7079E-02  0.0000E+00
    -22.647  0.7733E-01  0.1269E-01  0.0000E+00
    -22.526  0.1191E+00  0.2089E-01  0.0000E+00
    -22.405  0.3223E-01  0.5937E-02  0.0000E+00
    -22.284  0.5778E-01  0.1359E-01  0.0000E+00
    -22.163  0.1337E+00  0.3130E-01  0.0000E+00
    -22.042  0.7727E-01  0.2125E-01  0.0000E+00
    -21.921  0.2962E-01  0.8306E-02  0.0000E+00
    -21.800  0.1195E+00  0.3871E-01  0.0000E+00
    -21.680  0.1065E+00  0.3548E-01  0.0000E+00
    -21.559  0.6012E-01  0.2261E-01  0.0000E+00
    -21.438  0.7726E-01  0.3218E-01  0.0000E+00
    -21.317  0.1335E+00  0.5793E-01  0.0000E+00
    -21.196  0.9054E-01  0.4097E-01  0.0000E+00
    -21.075  0.1491E+00  0.7813E-01  0.0000E+00
    -20.954  0.9301E-01  0.5073E-01  0.0000E+00
    -20.833  0.9799E-01  0.6090E-01  0.0000E+00
    -20.712  0.7983E-01  0.5203E-01  0.0000E+00
    -20.591  0.2304E-01  0.1879E-01  0.0000E+00
    -20.471  0.1006E+00  0.8516E-01  0.0000E+00
    -20.350  0.1986E-01  0.2006E-01  0.0000E+00
    -20.229  0.5282E-01  0.6252E-01  0.0000E+00
    -20.108  0.2993E-01  0.4186E-01  0.0000E+00