unknown system                          
   1.00000000000000     
     3.315000    0.000000    0.000000
     0.000000    3.315000    0.000000
     0.000000    0.000000   24.126512
   C    N 
     2     4
Direct
  0.000000  0.000000  0.500000
  0.500000  0.500000  0.500000
  0.345554  0.154446  0.531659
  0.154446  0.654446  0.468341
  0.654446  0.845554  0.531659
  0.845554  0.345554  0.468341
 
   18   18  140
 0.52086E-12 0.26923E-14 0.16626E-13 0.39413E-14 0.73830E-14 0.15660E-12 0.39502E-12 0.68681E-12 0.14685E-11 0.16268E-11
 0.16562E-11 0.75806E-12 0.42874E-12 0.16892E-12 0.69944E-14 0.39968E-14 0.16792E-13 0.30184E-14 0.75850E-12 0.13878E-16
  0.0000     0.71498E-13 0.55511E-16 0.30914E-12 0.34961E-12 0.58670E-12 0.18827E-11 0.16561E-11 0.24841E-13 0.27062E-14
 0.16931E-14 0.14155E-14 0.10825E-13 0.16653E-14 0.12740E-13 0.43693E-12 0.30387E-12 0.63005E-13 0.44797E-13 0.94591E-13
 0.22760E-13 0.14927E-12 0.12323E-12 0.18197E-12 0.55422E-12 0.75803E-12 0.26923E-14 0.69111E-14 0.84863E-14 0.14044E-13
 0.94091E-14 0.55511E-16 0.24980E-14 0.14044E-12 0.78548E-13 0.67946E-13 0.44853E-13 0.40912E-13 0.45464E-13 0.12834E-12
 0.92815E-13 0.12335E-12 0.33179E-12 0.42871E-12 0.16098E-14 0.85765E-14 0.74246E-14 0.83544E-14 0.60230E-14 0.16653E-15
 0.65503E-14 0.12768E-14 0.13306E-12 0.79797E-13 0.26562E-13 0.20567E-13 0.19040E-13 0.16809E-12 0.13278E-12 0.15588E-12
 0.30675E-12 0.16870E-12 0.13600E-14 0.14003E-13 0.83961E-14 0.25743E-13 0.13176E-12 0.13500E-12 0.10630E-12 0.10458E-12
 0.62716E-12 0.11388E-12 0.20289E-13 0.19748E-13 0.12074E-13 0.17736E-13 0.42744E-13 0.21427E-13 0.55511E-16 0.69389E-14
 0.10658E-13 0.94369E-14 0.60507E-14 0.13181E-12 0.25785E-12 0.16853E-12 0.19917E-12 0.47856E-12 0.88338E-12 0.11682E-12
 0.20428E-13 0.14426E-13 0.19526E-13 0.20650E-13 0.41023E-13 0.94758E-13 0.72609E-13 0.38303E-14 0.17208E-14 0.22204E-15
 0.22204E-15 0.13489E-12 0.16842E-12 0.10908E-12 0.14605E-12 0.44048E-12 0.15299E-11 0.17206E-12 0.29837E-13 0.20345E-13
 0.20303E-13 0.26756E-13 0.44853E-13 0.44742E-13 0.55511E-16 0.16792E-13 0.12740E-13 0.26090E-14 0.66058E-14 0.10641E-12
 0.19890E-12 0.14605E-12 0.21544E-12 0.72287E-12 0.44267E-11 0.67482E-12 0.17741E-12 0.12002E-12 0.11652E-12 0.80325E-13
 0.68057E-13 0.63172E-13 0.27756E-16 0.28900E-14 0.43671E-12 0.14050E-12 0.12212E-14 0.10447E-12 0.47851E-12 0.44048E-12
 0.72292E-12 0.26337E-11 0.71297E-11 0.41588E-11 0.13666E-11 0.80030E-12 0.60524E-12 0.13173E-12 0.78992E-13 0.30087E-12
 0.74979E-12 0.52089E-12 0.75841E-12 0.30378E-12 0.78548E-13 0.13306E-12 0.62705E-12 0.88343E-12 0.15300E-11 0.44268E-11
 0.41589E-11 0.29309E-11 0.75151E-12 0.45608E-12 0.51487E-12 0.10159E-12 0.10547E-14 0.13911E-12 0.43984E-12 0.27686E-14
 -.41633E-16 0.63116E-13 0.68112E-13 0.80130E-13 0.11380E-12 0.11682E-12 0.17214E-12 0.67478E-12 0.13667E-11 0.75151E-12
 0.21155E-12 0.14355E-12 0.20306E-12 0.98643E-13 0.66058E-14 0.26645E-14 0.13045E-13 0.16764E-13 0.16653E-15 0.44797E-13
 0.44909E-13 0.26701E-13 0.20123E-13 0.20400E-13 0.29927E-13 0.17744E-12 0.80028E-12 0.45608E-12 0.14361E-12 0.10758E-12
 0.17258E-12 0.12684E-12 0.16653E-15 0.11102E-15 0.16653E-14 0.39413E-14 0.71387E-13 0.94480E-13 0.40967E-13 0.20484E-13
 0.19540E-13 0.14322E-13 0.20366E-13 0.12007E-12 0.60535E-12 0.51481E-12 0.20317E-12 0.17253E-12 0.27522E-12 0.12881E-12
 0.61895E-14 0.94924E-14 0.10936E-13 0.72164E-14 0.16653E-15 0.22593E-13 0.45464E-13 0.19151E-13 0.12004E-13 0.19582E-13
 0.20373E-13 0.11652E-12 0.13184E-12 0.10181E-12 0.98699E-13 0.12668E-12 0.12854E-12 0.25036E-13 0.84655E-14 0.13961E-13
 0.13323E-14 0.15643E-12 0.30920E-12 0.14944E-12 0.12795E-12 0.16825E-12 0.17847E-13 0.20678E-13 0.26756E-13 0.80408E-13
 0.78937E-13 0.11102E-14 0.67168E-14  0.0000     0.58842E-14 0.83822E-14 0.74940E-14 0.83614E-14 0.17902E-14 0.39505E-12
 0.34966E-12 0.12340E-12 0.92815E-13 0.13300E-12 0.42744E-13 0.41078E-13 0.44964E-13 0.68168E-13 0.30106E-12 0.13922E-12
 0.26645E-14 0.22204E-15 0.93814E-14 0.13947E-13 0.84308E-14 0.68417E-14 0.27756E-14 0.68695E-12 0.58670E-12 0.18163E-12
 0.12340E-12 0.15588E-12 0.21538E-13 0.94869E-13 0.44797E-13 0.63421E-13 0.74981E-12 0.43986E-12 0.12962E-13 0.16653E-14
 0.10852E-13 0.13323E-14 0.17347E-14 0.28588E-14 0.25660E-13 0.14684E-11 0.18827E-11 0.55422E-12 0.33173E-12 0.30670E-12
  0.0000     0.72498E-13 -.11102E-15 0.27756E-16 0.19452E-12 0.30573E-12 0.13406E-12 0.36748E-13 0.94091E-13 0.10942E-11
 0.19506E-11 0.43905E-11 0.37695E-10 0.21186E-09 0.31286E-10 0.38763E-11 0.17643E-11 0.10127E-11 0.94147E-13 0.37192E-13
 0.13245E-12 0.29515E-12 0.11796E-15 0.27095E-12 0.74718E-13 0.22204E-15 0.87597E-13 0.52947E-12 0.45430E-12 0.80919E-12
 0.47986E-11 0.31286E-10 0.55074E-11 0.76508E-12 0.39468E-12 0.23648E-12 0.65337E-13 0.36693E-13 0.30920E-13 0.59674E-15
 0.34084E-13 0.87153E-14 0.77716E-15 0.84377E-14 0.98754E-13 0.18119E-12 0.12484E-12 0.19351E-12 0.84416E-12 0.38764E-11
 0.76511E-12 0.99296E-13 0.52770E-13 0.41009E-13 0.26840E-13 0.33307E-13 0.31697E-13 0.83267E-15 0.21094E-14 0.11102E-15
  0.0000     0.27756E-15 0.12373E-12 0.14350E-12 0.88318E-13 0.12473E-12 0.47284E-12 0.17644E-11 0.39468E-12 0.52860E-13
 0.27367E-13 0.34681E-13 0.22302E-13 0.34750E-13 0.76716E-13 0.71942E-13 0.24425E-14 0.39135E-14 0.36082E-14 0.24980E-14
 0.99032E-13 0.21971E-12 0.13983E-12 0.17569E-12 0.53962E-12 0.10127E-11 0.23642E-12 0.40939E-13 0.34646E-13 0.12920E-13
 0.24356E-13 0.39829E-13 0.20151E-13 0.61062E-15 0.98727E-13 0.12490E-15 0.49127E-14 0.26507E-14 0.11630E-13 0.10514E-12
 0.12951E-12 0.10159E-12 0.90927E-13 0.94258E-13 0.65392E-13 0.26867E-13 0.22440E-13 0.24328E-13 0.20212E-12 0.15160E-12
 0.16454E-12 0.27101E-12 0.19013E-12 0.12629E-14 0.19845E-14 0.17417E-14 0.26784E-14 0.25813E-14 0.27756E-15 0.84377E-14
 0.11102E-15 0.37192E-13 0.36582E-13 0.33307E-13 0.34639E-13 0.39996E-13 0.15157E-12 0.10850E-12 0.13547E-12 0.30509E-12
 0.27792E-12 0.15821E-14 0.16133E-14 0.20609E-14 0.50515E-14 0.36637E-14 -.16653E-15 0.77716E-15 0.72553E-13 0.13245E-12
 0.31031E-13 0.31752E-13 0.76716E-13 0.20206E-13 0.16431E-12 0.13545E-12 0.18771E-12 0.46427E-12 0.38053E-12 0.10318E-13
 0.15959E-14 0.12212E-14 -.41633E-16 0.40246E-14 0.27756E-15 0.86042E-14 0.26174E-12 0.29500E-12 0.44409E-15 0.66613E-15
 0.71942E-13 0.66613E-15 0.27101E-12 0.30501E-12 0.46418E-12 0.10180E-11 0.29113E-12 0.39609E-12 0.30416E-12 0.20661E-12
 0.10064E-12 0.22760E-14 0.19429E-14 0.34028E-13 -.27756E-16 0.19449E-12 0.41633E-16 0.33973E-13 0.21649E-14 0.24980E-14
 0.98560E-13 0.19020E-12 0.27789E-12 0.38058E-12 0.39600E-12 0.91402E-12 0.44423E-12 0.29349E-12 0.24944E-12 0.55511E-15
 0.73941E-13 0.66613E-15 0.48572E-15 0.30566E-12 0.27095E-12 0.87708E-14 0.22204E-15 0.41078E-14 -.41633E-16 0.13253E-14
 0.17555E-14 0.10394E-13 0.30420E-12 0.44426E-12 0.19201E-12 0.13831E-12 0.15954E-12 0.21871E-13 0.76328E-13 0.30809E-13
 0.30420E-13 0.13406E-12 0.74829E-13 0.83267E-15 0.11102E-15 0.38025E-14 0.48711E-14 0.19776E-14 0.17278E-14 0.16237E-14
 0.20652E-12 0.29352E-12 0.13844E-12 0.11036E-12 0.14688E-12 0.42855E-13 0.33862E-13 0.32918E-13 0.36526E-13 0.36582E-13
 0.22204E-15 0.84932E-14 0.27756E-15 0.25535E-14 0.27200E-14 0.16723E-14 0.20053E-14 0.13115E-14 0.10086E-12 0.24949E-12
 0.15959E-12 0.14683E-12 0.18732E-12 0.25147E-13 0.22274E-13 0.27089E-13 0.65226E-13 0.93925E-13 0.87597E-13 0.98532E-13
 0.12368E-12 0.99087E-13 0.11630E-13 0.27617E-14 0.50931E-14 0.27756E-16 0.26090E-14 0.55511E-15 0.21816E-13 0.42799E-13
 0.25105E-13 0.13253E-13 0.34833E-13 0.41189E-13 0.23165E-12 0.10942E-11 0.52963E-12 0.18108E-12 0.14355E-12 0.21960E-12
 0.10503E-12 0.24980E-14 0.35527E-14 0.40523E-14 0.21094E-14 0.74052E-13 0.76272E-13 0.33751E-13 0.22371E-13 0.35014E-13
 0.27457E-13 0.53103E-13 0.37809E-12 0.19506E-11 0.45441E-12 0.12490E-12 0.88374E-13 0.13972E-12 0.12940E-12 0.33307E-15
 -.55511E-16 0.27756E-15 0.34250E-13 0.69389E-15 0.30975E-13 0.32918E-13 0.27062E-13 0.41189E-13 0.53048E-13 0.10003E-12
 0.72808E-12 0.43904E-11 0.80924E-12 0.19351E-12 0.12490E-12 0.17591E-12 0.10159E-12 0.83822E-14 0.66613E-15 0.87708E-14
 0.62450E-16 0.49960E-15 0.30309E-13 0.36526E-13 0.65059E-13 0.23165E-12 0.37803E-12 0.72808E-12 0.52222E-11 0.37695E-10
 0.47986E-11 0.84421E-12 0.47279E-12 0.53940E-12 0.90650E-13 0.55511E-16 0.72442E-13 0.26176E-12 0.56871E-13 -.55511E-16
 0.49960E-14 0.55511E-15 0.27756E-14 0.48833E-12 0.19565E-11 0.56148E-11 0.12356E-09 0.13452E-08 0.13436E-09 0.63813E-11
 0.21769E-11 0.52214E-12 0.25535E-14 0.55511E-15 0.48295E-14 0.55511E-16 0.22557E-12 0.11102E-15 0.22204E-15 0.22482E-13
 0.61062E-15 0.36121E-12 0.36071E-12 0.68112E-12 0.44125E-11 0.13436E-09 0.50353E-10 0.22465E-12 0.57621E-13 0.24425E-14
 0.67724E-14 0.16653E-15 0.26645E-14 0.12032E-12 0.33348E-12 0.46518E-13 0.21538E-13 0.50737E-13 0.23870E-13 0.12140E-12
 0.93203E-13 0.14971E-12 0.66558E-12 0.63812E-11 0.22465E-12 0.17564E-12 0.10861E-12 0.77244E-13 0.94091E-14 -.22204E-15
 0.72164E-15 0.10436E-12 0.98421E-13 0.61173E-13 0.26035E-13 0.24591E-13 0.44076E-13 0.93203E-13 0.64226E-13 0.93314E-13
 0.35183E-12 0.21770E-11 0.57648E-13 0.10870E-12 0.66787E-13 0.34625E-13 0.62866E-14 0.36082E-15 0.52736E-14 0.66613E-15
 0.74662E-13 0.35805E-13 0.91593E-14 0.75495E-14 0.16931E-13 0.12679E-12 0.94758E-13 0.12390E-12 0.35139E-12 0.52203E-12
 0.23315E-14 0.77202E-13 0.34459E-13 0.60979E-13 0.13571E-12 0.91122E-13 0.62533E-13 0.59952E-13 0.16877E-12 0.23967E-13
 0.40939E-14 0.44409E-14 0.38025E-14 0.16154E-13 0.42688E-13 0.23703E-13 0.49960E-15 0.24425E-14 0.68834E-14 0.93259E-14
 0.62866E-14 0.13579E-12 0.28287E-12 0.18963E-12 0.19409E-12 0.28824E-12 0.18570E-12 0.17354E-13 0.30947E-14 0.25258E-14
 0.45519E-14 0.75495E-14 0.24147E-13 0.50571E-13 0.22760E-13 0.44409E-15 0.16653E-15  0.0000     0.30531E-15 0.91066E-13
 0.18949E-12 0.13634E-12 0.16120E-12 0.29289E-12 0.23881E-12 0.20602E-13 0.41529E-14 0.30947E-14 0.42188E-14 0.90483E-14
 0.25757E-13 0.21205E-13 0.22204E-15 0.49405E-14 0.27200E-14 0.72164E-15 0.52458E-14 0.62617E-13 0.19384E-12 0.16126E-12
 0.20968E-12 0.39940E-12 0.31969E-12 0.53093E-13 0.20935E-13 0.17618E-13 0.24328E-13 0.35916E-13 0.60951E-13 0.45852E-13
 0.55511E-16 -.83267E-16 0.12024E-12 0.10425E-12 0.52736E-15 0.59952E-13 0.28813E-12 0.29297E-12 0.39943E-12 0.64723E-12
 0.30128E-12 0.31031E-12 0.22163E-12 0.17299E-12 0.16633E-12 0.73358E-13 0.97644E-13 0.33365E-12 0.23048E-12 0.56843E-13
 0.22557E-12 0.33340E-12 0.98366E-13 0.74718E-13 0.16856E-12 0.18571E-12 0.23892E-12 0.31967E-12 0.31038E-12 0.71465E-12
 0.41751E-12 0.30466E-12 0.31422E-12 0.57065E-13 0.49960E-15 0.10578E-12 0.12321E-12 -.27756E-16  0.0000     0.46685E-13
 0.61173E-13 0.36082E-13 0.23870E-13 0.17437E-13 0.20720E-13 0.53155E-13 0.22169E-12 0.41757E-12 0.20382E-12 0.15701E-12
 0.20098E-12 0.57510E-13 0.53568E-14 0.66613E-15 0.27200E-14 0.49960E-14 0.22204E-15 0.21372E-13 0.25924E-13 0.93259E-14
 0.41495E-14 0.31780E-14 0.42813E-14 0.21014E-13 0.17300E-12 0.30465E-12 0.15690E-12 0.13314E-12 0.19706E-12 0.84432E-13
 0.24980E-15 -.16653E-15 0.22204E-15 0.49960E-15 0.22482E-13 0.50793E-13 0.24480E-13 0.75495E-14 0.43576E-14 0.25951E-14
 0.31503E-14 0.17784E-13 0.16651E-12 0.31411E-12 0.20112E-12 0.19716E-12 0.30789E-12 0.13022E-12 0.61479E-14 0.93536E-14
 0.69944E-14 0.25535E-14 0.49960E-15 0.23759E-13 0.44187E-13 0.16986E-13 0.37748E-14 0.45519E-14 0.42466E-14 0.24356E-13
 0.73386E-13 0.57149E-13 0.57510E-13 0.84155E-13 0.13034E-12 0.58759E-13 0.34597E-13 0.76869E-13 0.24425E-14 0.48839E-12
 0.36116E-12 0.12146E-12 0.93148E-13 0.12684E-12 0.16043E-13 0.74940E-14 0.91593E-14 0.36027E-13 0.97533E-13 0.49960E-15
 0.53291E-14 0.24980E-15 0.62311E-14 0.34500E-13 0.66731E-13 0.10822E-12 0.61978E-13 0.19565E-11 0.36077E-12 0.93314E-13
 0.64226E-13 0.94924E-13 0.42744E-13 0.24369E-13 0.25979E-13 0.61062E-13 0.33379E-12 0.10583E-12 0.88818E-15 -.11102E-15
 0.94091E-14 0.76869E-13 0.10825E-12 0.17381E-12 0.24816E-12 0.56148E-11 0.68129E-12 0.14955E-12 0.93536E-13 0.12396E-12
 0.23648E-13 0.50793E-13 0.21316E-13 0.46019E-13 0.23045E-12 0.12329E-12 0.27200E-14 0.16653E-15 0.69944E-14 0.23870E-14
 0.61978E-13 0.24822E-12 0.60983E-10 0.12356E-09 0.44126E-11 0.66541E-12 0.35189E-12 0.35111E-12 0.44409E-15 0.22871E-13
 0.55511E-16  0.0000     0.15626E-13 0.39524E-13 0.28810E-13 0.95479E-14 0.42910E-13 0.18598E-11 0.51041E-11 0.12754E-10
 0.40916E-10 0.21153E-10 0.47467E-10 0.12046E-10 0.47041E-11 0.17891E-11 0.42522E-13 0.96034E-14 0.28755E-13 0.39080E-13
 0.55511E-16 0.48683E-13 0.18818E-13 0.11102E-15 0.49738E-13 0.47357E-12 0.39002E-12 0.73674E-12 0.49997E-11 0.47467E-10
 0.11219E-09 0.14334E-09 0.14076E-10 0.92487E-12 0.36526E-13 0.11491E-13 0.74385E-14 0.16653E-15 0.15765E-13 0.35527E-14
 0.44409E-15 0.38303E-14 0.73830E-13 0.12801E-12 0.87458E-13 0.14400E-12 0.73969E-12 0.12046E-10 0.14334E-09 0.87881E-10
 0.47223E-11 0.34220E-12 0.25896E-13 0.14461E-13 0.11907E-13 0.30531E-15 0.11657E-14 0.11102E-15 0.11102E-15 0.33307E-15
 0.92315E-13 0.93259E-13 0.57926E-13 0.87264E-13 0.39391E-12 0.47042E-11 0.14076E-10 0.47224E-11 0.12802E-11 0.26563E-12
 0.23898E-13 0.16140E-13 0.33085E-13 0.37526E-13 0.11935E-14 0.16653E-14 0.14433E-14 0.99920E-15 0.67280E-13 0.14838E-12
 0.92343E-13 0.12684E-12 0.49094E-12 0.17890E-11 0.92482E-12 0.34220E-12 0.26551E-12 0.45811E-13 0.21913E-13 0.23745E-13
 0.10977E-13 0.38858E-15 0.29698E-13 0.13878E-15 0.14155E-14 0.86042E-15 0.52736E-14 0.70499E-13 0.93370E-13 0.73164E-13
 0.50016E-13 0.42466E-13 0.36637E-13 0.25868E-13 0.23981E-13 0.21927E-13 0.20413E-12 0.15517E-12 0.14584E-12 0.14831E-12
 0.50605E-13 0.26368E-15 0.54123E-15 0.52736E-15 0.88818E-15 0.99920E-15 0.11102E-15 0.35527E-14 -.55511E-16 0.96034E-14
 0.11380E-13 0.14461E-13 0.16168E-13 0.23842E-13 0.15507E-12 0.12308E-12 0.13450E-12 0.18267E-12 0.60660E-13 0.18041E-15
 0.28449E-15 0.62450E-15 0.15266E-14 0.14988E-14 -.55511E-16 0.22204E-15 0.18485E-13 0.28644E-13 0.76050E-14 0.12046E-13
 0.33112E-13 0.11213E-13 0.14569E-12 0.13452E-12 0.16255E-12 0.23281E-12 0.54311E-13 0.13930E-14 0.34001E-15 0.30531E-15
 -.41633E-16 0.16098E-14 0.11102E-15 0.34417E-14 0.48017E-13 0.39024E-13  0.0000     0.27756E-15 0.37387E-13 0.41633E-15
 0.14833E-12 0.18266E-12 0.23274E-12 0.26560E-12 0.32139E-13 0.55480E-13 0.64410E-13 0.53776E-13 0.29962E-13 0.10825E-14
 0.11102E-14 0.15488E-13  0.0000     0.15626E-13 -.55511E-16 0.15765E-13 0.11102E-14 0.13045E-14 0.29490E-13 0.50786E-13
 0.60629E-13 0.54321E-13 0.55581E-13 0.24297E-12 0.22268E-12 0.17571E-12 0.13591E-12 0.24980E-15 0.37914E-13 0.13878E-15
 0.55511E-16 0.39413E-13 0.48739E-13 0.35527E-14 0.27756E-15 0.18319E-14 0.41633E-16 0.33307E-15 0.40593E-15 0.15196E-14
 0.64559E-13 0.22267E-12 0.16771E-12 0.13858E-12 0.13951E-12 0.11796E-13 0.32974E-13 0.11685E-13 0.74940E-14 0.28866E-13
 0.18874E-13 0.38858E-15 0.11102E-15 0.14433E-14 0.14155E-14 0.51348E-15 0.38858E-15 0.39205E-15 0.53769E-13 0.17560E-12
 0.13868E-12 0.12629E-12 0.14787E-12 0.25674E-13 0.15821E-13 0.14322E-13 0.11546E-13 0.94924E-14 0.55511E-16 0.38858E-14
 0.22204E-15 0.10547E-14 0.86042E-15 0.47184E-15 0.48572E-15 0.38164E-15 0.29921E-13 0.13604E-12 0.13969E-12 0.14812E-12
 0.18610E-12 0.22801E-13 0.23759E-13 0.25951E-13 0.36526E-13 0.42633E-13 0.49738E-13 0.73552E-13 0.92260E-13 0.67391E-13
 0.53846E-14 0.86042E-15 0.15266E-14 0.27756E-16 0.11657E-14 0.24980E-15 0.11838E-13 0.25577E-13 0.22954E-13 0.47629E-13
 0.26690E-12 0.34492E-12 0.88940E-12 0.18598E-11 0.47373E-12 0.12790E-12 0.93286E-13 0.14833E-12 0.70444E-13 0.77716E-15
 0.13878E-14 0.17208E-14 0.11657E-14 0.38053E-13 0.32946E-13 0.15765E-13 0.23967E-13 0.26704E-12 0.12877E-11 0.48111E-11
 0.12862E-10 0.51042E-11 0.38991E-12 0.87541E-13 0.57926E-13 0.92287E-13 0.93481E-13 0.16653E-15 0.55511E-16 0.16653E-15
 0.15654E-13 0.27756E-15 0.11657E-13 0.14211E-13 0.25979E-13 0.34497E-12 0.48111E-11 0.91413E-10 0.12883E-09 0.12755E-10
 0.73686E-12 0.14391E-12 0.87375E-13 0.12690E-12 0.72942E-13 0.36637E-14 0.44409E-15 0.34972E-14 0.55511E-16  0.0000    
 0.74940E-14 0.11435E-13 0.36526E-13 0.88934E-12 0.12862E-10 0.12883E-09 0.12572E-09 0.40916E-10 0.49995E-11 0.73963E-12
 0.39396E-12 0.49077E-12 0.50016E-13 0.55511E-16 0.18485E-13 0.48073E-13 0.76328E-14  0.0000     0.94369E-15 0.22204E-15
 0.15543E-14 0.38874E-12 0.16804E-11 0.27729E-11 0.19398E-11 0.51742E-12 0.17374E-11 0.27329E-11 0.17357E-11 0.39080E-12
 0.14433E-14 0.22204E-15 0.72164E-15 0.55511E-16 0.33695E-13  0.0000      0.0000     0.77161E-14 0.11102E-15 0.26013E-12
 0.24938E-12 0.45880E-12 0.19856E-11 0.17374E-11 0.90927E-13 0.10619E-12 0.12412E-12 0.13267E-13 0.39413E-14 0.11102E-15
 0.10547E-14 0.24286E-13 0.87153E-13 0.14932E-13 0.79936E-14 0.20428E-13 0.12546E-13 0.80352E-13 0.61631E-13 0.10253E-12
 0.46457E-12 0.27329E-11 0.10625E-12 0.10476E-10 0.43667E-10 0.52700E-12 0.70222E-14  0.0000     0.41633E-15 0.31225E-13
 0.39940E-13 0.23981E-13 0.10603E-13 0.11879E-13 0.24980E-13 0.58009E-13 0.40516E-13 0.61770E-13 0.25002E-12 0.17357E-11
 0.12407E-12 0.43667E-10 0.38985E-09 0.46577E-12 0.63421E-14 0.13878E-15 0.13600E-14 0.55511E-15 0.31836E-13 0.14932E-13
 0.38858E-14 0.35527E-14 0.94369E-14 0.80769E-13 0.58231E-13 0.80380E-13 0.24997E-12 0.39063E-12 0.13212E-13 0.52697E-12
 0.46571E-12 0.26632E-12 0.11938E-12 0.50238E-13 0.31600E-13 0.26604E-13 0.59869E-13 0.87153E-14 0.14988E-14 0.18319E-14
 0.19984E-14 0.90483E-14 0.24869E-13 0.12657E-13 0.11102E-15 0.13878E-14 0.41078E-14 0.70777E-14 0.64601E-14 0.11943E-12
 0.25792E-12 0.16967E-12 0.15360E-12 0.15279E-12 0.57759E-13 0.53152E-14 0.99920E-15 0.94369E-15 0.17208E-14 0.34972E-14
 0.11768E-13 0.20206E-13 0.77716E-14 0.11102E-15 0.11102E-15 0.83267E-16 -.41633E-16 0.50349E-13 0.16959E-12 0.14053E-12
 0.14606E-12 0.16351E-12 0.65684E-13 0.59397E-14 0.12768E-14 0.11935E-14 0.16098E-14 0.38858E-14 0.10381E-13 0.78271E-14
 0.55511E-16 0.77716E-15 0.10547E-14 0.47184E-15 0.13739E-14 0.31697E-13 0.15314E-12 0.14614E-12 0.16689E-12 0.19238E-12
 0.67991E-13 0.12759E-13 0.60334E-14 0.54678E-14 0.88263E-14 0.14960E-13 0.23814E-13 0.14655E-13  0.0000      0.0000    
 0.24203E-13 0.31197E-13 0.41633E-15 0.26604E-13 0.15270E-12 0.16345E-12 0.19239E-12 0.19675E-12 0.56200E-13 0.66606E-13
 0.62211E-13 0.54672E-13 0.59439E-13 0.31197E-13 0.39385E-13 0.87569E-13 0.34278E-13 0.76605E-14 0.33529E-13 0.87180E-13
 0.39996E-13 0.31947E-13 0.59744E-13 0.57711E-13 0.65749E-13 0.68022E-13 0.66742E-13 0.21287E-12 0.20044E-12 0.16978E-12
 0.16616E-12 0.25230E-13 0.44409E-15 0.31780E-13 0.24675E-13  0.0000     -.16653E-15 0.14988E-13 0.24036E-13 0.15210E-13
 0.86597E-14 0.54401E-14 0.60126E-14 0.12762E-13 0.62263E-13 0.20038E-12 0.16134E-12 0.14121E-12 0.16063E-12 0.29365E-13
 0.14155E-14 0.30531E-15 0.94369E-15 0.77716E-15 -.11102E-15 0.79381E-14 0.10547E-13 0.39413E-14 0.14710E-14 0.10547E-14
 0.13600E-14 0.60750E-14 0.54741E-13 0.16969E-12 0.14128E-12 0.13652E-12 0.17851E-12 0.46893E-13 0.41633E-16 -.16653E-15
 0.22204E-15 0.27756E-15 0.74940E-14 0.20317E-13 0.11824E-13 0.35527E-14 0.17764E-14 0.94369E-15 0.97145E-15 0.54678E-14
 0.59563E-13 0.16605E-12 0.16070E-12 0.17857E-12 0.28365E-12 0.11333E-12 0.64809E-14 0.70499E-14 0.41633E-14 0.14433E-14
 0.55511E-16 0.12434E-13 0.24758E-13 0.93259E-14 0.19429E-14 0.17764E-14 0.16098E-14 0.89095E-14 0.31336E-13 0.25216E-13
 0.29310E-13 0.46636E-13 0.11337E-12 0.25361E-12 0.46188E-12 0.52300E-12 0.13656E-13 0.38869E-12 0.26018E-12 0.80436E-13
 0.57981E-13 0.80935E-13 0.91038E-14 0.34972E-14 0.38858E-14 0.15099E-13 0.39357E-13 0.58287E-15 0.14155E-14 0.69389E-16
 0.65434E-14 0.46200E-12 0.38280E-09 0.42242E-10 0.12468E-12 0.16805E-11 0.24933E-12 0.61673E-13 0.40551E-13 0.58176E-13
 0.24647E-13 0.11713E-13 0.10492E-13 0.23870E-13 0.87680E-13 0.31725E-13 0.44409E-15 -.27756E-16 0.71609E-14 0.52308E-12
 0.42242E-10 0.10787E-10 0.10209E-12 0.27729E-11 0.45886E-12 0.10246E-12 0.61742E-13 0.80380E-13 0.12712E-13 0.20262E-13
 0.78271E-14 0.14766E-13 0.34223E-13 0.24702E-13 0.11102E-14 0.22204E-15 0.40523E-14 0.13711E-13 0.12473E-12 0.10203E-12
 0.86819E-13 0.19398E-11 0.19857E-11 0.46452E-12 0.24999E-12 0.24974E-12 -.11102E-15 0.76050E-14 -.11102E-15  0.0000    
 0.30254E-14 0.88263E-14 0.85487E-14 0.33307E-14 0.17208E-13 0.84172E-12 0.15563E-11 0.17382E-11 0.10456E-11 0.51154E-12
 0.11321E-11 0.18064E-11 0.15571E-11 0.85565E-12 0.16986E-13 0.34417E-14 0.83267E-14 0.88818E-14 0.55511E-16 0.11546E-13
 0.58287E-14 0.55511E-16 0.22093E-13 0.29987E-12 0.24619E-12 0.43426E-12 0.14606E-11 0.11320E-11 0.41323E-12 0.67979E-12
 0.11852E-11 0.46696E-12 0.15821E-13 0.42188E-14 0.26645E-14 0.11102E-15 0.23037E-14 0.13878E-14 0.27756E-15 0.11102E-14
 0.39968E-13 0.80991E-13 0.56483E-13 0.94563E-13 0.42377E-12 0.18064E-11 0.67979E-12 0.72103E-12 0.16884E-11 0.50987E-12
 0.12990E-13 0.54956E-14 0.41911E-14 0.55511E-16 0.69389E-15 0.16653E-15 0.11102E-15 0.55511E-16 0.52736E-13 0.56954E-13
 0.36193E-13 0.56455E-13 0.24303E-12 0.15572E-11 0.11852E-11 0.16884E-11 0.17070E-10 0.19053E-11 0.15099E-13 0.68556E-14
 0.12698E-13 0.13059E-13 0.86042E-15 0.97145E-15 0.72164E-15 0.61062E-15 0.43854E-13 0.94647E-13 0.57065E-13 0.81435E-13
 0.31308E-12 0.85559E-12 0.46696E-12 0.50993E-12 0.19052E-11 0.25106E-12 0.14683E-13 0.11532E-13 0.47184E-14 0.69389E-16
 0.10145E-13 0.55511E-16 0.61062E-15 0.55511E-15 0.32196E-14 0.45242E-13 0.52347E-13 0.38858E-13 0.21816E-13 0.16931E-13
 0.15987E-13 0.12962E-13 0.14988E-13 0.14627E-13 0.16076E-12 0.12212E-12 0.10242E-12 0.72622E-13 0.16959E-13 -.13878E-16
 0.13878E-15 0.27756E-15 0.33307E-15 0.61062E-15 0.11102E-15 0.99920E-15 -.55511E-16 0.33862E-14 0.41078E-14 0.56344E-14
 0.67585E-14 0.11616E-13 0.12197E-12 0.11123E-12 0.10802E-12 0.95354E-13 0.18568E-13 0.69389E-17 0.83267E-16 0.30531E-15
 0.66613E-15 0.77716E-15 -.11102E-15 0.27756E-15 0.59397E-14 0.83267E-14 0.26368E-14 0.43715E-14 0.12587E-13 0.45797E-14
 0.10224E-12 0.10804E-12 0.11587E-12 0.10719E-12 0.13753E-13 0.17347E-15 0.69389E-17 -.13878E-16 0.55511E-16 0.88818E-15
 0.16653E-15 0.12768E-14 0.11380E-13 0.87430E-14 -.27756E-16 0.27756E-16 0.12934E-13 0.97145E-16 0.72636E-13 0.95340E-13
 0.10719E-12 0.86056E-13 0.74107E-14 0.13815E-13 0.19366E-13 0.17736E-13 0.10172E-13 0.83267E-15 0.58287E-15 0.21649E-14
 0.27756E-16 0.28866E-14 -.27756E-16 0.23037E-14 0.72164E-15 0.91593E-15 0.10117E-13 0.17028E-13 0.18506E-13 0.13725E-13
 0.13985E-13 0.80137E-13 0.10308E-12 0.91982E-13 0.67030E-13 0.13878E-16 0.13059E-13 -.55511E-16  0.0000     0.87708E-14
 0.11435E-13 0.14433E-14 0.16653E-15 0.11657E-14 0.83267E-16 0.41633E-16 0.11102E-15 0.37470E-15 0.19380E-13 0.10299E-12
 0.11993E-12 0.11192E-12 0.97394E-13 0.49266E-14 0.12781E-13 0.41633E-14 0.26923E-14 0.83267E-14 0.58842E-14 0.22204E-15
  0.0000     0.77716E-15 0.61062E-15 0.22204E-15 0.16653E-15 0.12490E-15 0.17798E-13 0.92051E-13 0.11205E-12 0.11491E-12
 0.11553E-12 0.12518E-13 0.67724E-14 0.54401E-14 0.41633E-14 0.33307E-14 0.55511E-16 0.11102E-14 0.11102E-15 0.49960E-15
 0.33307E-15 0.22204E-15 0.19429E-15 0.12490E-15 0.10200E-13 0.67071E-13 0.97464E-13 0.11562E-12 0.14592E-12 0.15418E-13
 0.15016E-13 0.12934E-13 0.15987E-13 0.17097E-13 0.21982E-13 0.39857E-13 0.52791E-13 0.43798E-13 0.32196E-14 0.38858E-15
 0.66613E-15 0.55511E-16 0.10131E-14 -.97145E-16 0.49405E-14 0.12629E-13 0.15529E-13 0.26690E-12 0.19151E-11 0.51051E-12
 0.45408E-12 0.84160E-12 0.29993E-12 0.80935E-13 0.56954E-13 0.94647E-13 0.45131E-13 0.33307E-15 0.66613E-15 0.11102E-14
 0.74940E-15 0.13017E-13 0.12643E-13 0.67446E-14 0.14988E-13 0.19154E-11 0.16802E-10 0.16849E-11 0.12114E-11 0.15563E-11
 0.24619E-12 0.56649E-13 0.36179E-13 0.56954E-13 0.52125E-13 -.55511E-16  0.0000     0.22204E-15 0.22204E-14 -.27756E-16
 0.43021E-14 0.55234E-14 0.12879E-13 0.51065E-12 0.16848E-11 0.71326E-12 0.70105E-12 0.17382E-11 0.43426E-12 0.94563E-13
 0.56510E-13 0.81435E-13 0.38747E-13 0.99920E-15 0.22204E-15 0.14433E-14 0.83267E-16 -.83267E-16 0.26090E-14 0.41633E-14
 0.15876E-13 0.45408E-12 0.12113E-11 0.70122E-12 0.42494E-12 0.10456E-11 0.14606E-11 0.42377E-12 0.24306E-12 0.31292E-12
 0.21649E-13 0.55511E-16 0.58842E-14 0.11435E-13 0.13461E-14 -.27756E-16 0.47184E-15 0.11102E-15 0.33307E-15 0.13434E-12
 0.36210E-12 0.35683E-12 0.14561E-12 0.47184E-13 0.13695E-12 0.34273E-12 0.35666E-12 0.13051E-12 0.27756E-15 0.55511E-16
 0.22204E-15 0.27756E-16 0.67724E-14  0.0000     -.55511E-16 0.25535E-14 0.11102E-15 0.14833E-12 0.14166E-12 0.23503E-12
 0.51514E-12 0.13672E-12 0.67724E-14 0.48850E-14 0.73275E-14 0.66613E-15 0.83267E-15 -.27756E-16 0.30531E-15 0.59397E-14
 0.17944E-13 0.32752E-14 0.22204E-14 0.69389E-14 0.65503E-14 0.49960E-13 0.39024E-13 0.65004E-13 0.24258E-12 0.34261E-12
 0.49960E-14 0.18291E-13 0.55900E-13 0.10877E-12 0.22204E-14  0.0000     0.69389E-16 0.77507E-14 0.88957E-14 0.61062E-14
 0.32752E-14 0.42188E-14 0.13711E-13 0.35305E-13 0.25202E-13 0.39024E-13 0.14444E-12 0.35660E-12 0.72720E-14 0.55816E-13
 0.21913E-12 0.32135E-12 0.21233E-14 0.14572E-15 0.74940E-15 0.15266E-15 0.98949E-14 0.46907E-14 0.13323E-14 0.13323E-14
 0.67168E-14 0.50404E-13 0.35083E-13 0.49349E-13 0.14233E-12 0.13040E-12 0.77716E-15 0.10877E-12 0.32135E-12 0.16600E-11
 0.77213E-13 0.24130E-13 0.13673E-13 0.96451E-14 0.22635E-13 0.30531E-14 0.38858E-15 0.66613E-15 0.77716E-15 0.64948E-14
 0.13933E-13 0.67724E-14 0.16653E-15 0.33307E-15 0.77716E-15 0.21372E-14 0.21233E-14 0.77282E-13 0.18364E-12 0.11995E-12
 0.99091E-13 0.75447E-13 0.21552E-13 0.17208E-14 0.38858E-15 0.22204E-15 0.66613E-15 0.13323E-14 0.39968E-14 0.68279E-14
 0.23315E-14 0.55511E-16 0.55511E-16 0.97145E-16 0.69389E-17 0.24088E-13 0.11988E-12 0.11518E-12 0.10802E-12 0.84419E-13
 0.22787E-13 0.18457E-14 0.41633E-15 0.55511E-15 0.49960E-15 0.13323E-14 0.31641E-14 0.22204E-14 0.55511E-16 0.30531E-15
 0.19429E-15 0.15266E-15 0.82573E-15 0.13784E-13 0.98949E-13 0.10809E-12 0.11078E-12 0.90584E-13 0.20796E-13 0.38199E-14
 0.19290E-14 0.18596E-14 0.30809E-14 0.46907E-14 0.60785E-14 0.31641E-14 0.55511E-16  0.0000     0.58425E-14 0.77577E-14
 0.90206E-16 0.97145E-14 0.75447E-13 0.84387E-13 0.90483E-13 0.72648E-13 0.16056E-13 0.20348E-13 0.21816E-13 0.20511E-13
 0.22524E-13 0.96728E-14 0.86597E-14 0.17958E-13 0.68001E-14 0.12906E-14 0.66752E-14 0.17986E-13 0.87985E-14 0.98532E-14
 0.22538E-13 0.21524E-13 0.22940E-13 0.20740E-13 0.20425E-13 0.77206E-13 0.93783E-13 0.87257E-13 0.81490E-13 0.92842E-14
 0.15266E-15 0.78410E-14 0.59952E-14 -.55511E-16 -.83267E-16 0.34139E-14 0.60507E-14 0.48850E-14 0.30531E-14 0.18596E-14
 0.19290E-14 0.38927E-14 0.21837E-13 0.93814E-13 0.10695E-12 0.10411E-12 0.10400E-12 0.12934E-13 0.92981E-15 -.41633E-16
 0.19429E-15 0.33307E-15 -.55511E-16 0.23315E-14 0.33307E-14 0.13878E-14 0.49960E-15 0.33307E-15 0.38858E-15 0.19568E-14
 0.20574E-13 0.87191E-13 0.10425E-12 0.11141E-12 0.12655E-12 0.22600E-13 0.23592E-15 -.41633E-16 0.55511E-16 -.55511E-16
 0.24425E-14 0.68834E-14 0.40523E-14 0.14433E-14 0.61062E-15 0.22204E-15 0.38858E-15 0.19151E-14 0.22593E-13 0.81411E-13
 0.10413E-12 0.12655E-12 0.20195E-12 0.73132E-13 0.21649E-14 0.21649E-14 0.83267E-15 0.38858E-15 0.22204E-15 0.64393E-14
 0.13822E-13 0.66613E-14 0.72164E-15 0.55511E-15 0.55511E-15 0.30531E-14 0.98255E-14 0.92981E-14 0.12927E-13 0.22534E-13
 0.73181E-13 0.15323E-11 0.31930E-12 0.10864E-12 0.72164E-15 0.13434E-12 0.14838E-12 0.50071E-13 0.35194E-13 0.50571E-13
 0.64393E-14 0.13878E-14 0.13878E-14 0.47462E-14 0.86181E-14 0.12490E-15 0.75634E-15 0.15266E-15 0.21719E-14 0.31940E-12
 0.21989E-12 0.55955E-13 0.71054E-14 0.36204E-12 0.14161E-12 0.39024E-13 0.25202E-13 0.35194E-13 0.13767E-13 0.40523E-14
 0.33307E-14 0.60785E-14 0.17972E-13 0.77438E-14 0.23592E-15 0.55511E-16 0.21094E-14 0.10872E-12 0.55955E-13 0.18374E-13
 0.48295E-14 0.35677E-12 0.23515E-12 0.65004E-13 0.39080E-13 0.49460E-13 0.66613E-14 0.67168E-14 0.22760E-14 0.33307E-14
 0.67862E-14 0.59536E-14 0.27756E-15 0.55511E-16 0.88818E-15 0.72164E-15 0.71609E-14 0.48295E-14 0.67168E-14 0.14561E-12
 0.51503E-12 0.24258E-12 0.14444E-12 0.14222E-12 0.55511E-16 0.25535E-14 -.55511E-16  0.0000     0.89512E-15 0.26090E-14
 0.30809E-14 0.12212E-14 0.68279E-14 0.23270E-12 0.30659E-12 0.26595E-12 0.14022E-12 0.74385E-13 0.14738E-12 0.27628E-12
 0.31314E-12 0.24003E-12 0.66058E-14 0.13323E-14 0.29143E-14 0.26923E-14 0.27756E-16 0.33584E-14 0.20539E-14 0.55511E-16
 0.91593E-14 0.15532E-12 0.13251E-12 0.20794E-12 0.38103E-12 0.14727E-12 0.41356E-13 0.47712E-13 0.78271E-13 0.82323E-13
 0.57732E-14 0.16931E-14 0.88818E-15 0.76328E-16 0.72164E-15 0.27756E-15 0.11102E-15 0.49960E-15 0.18263E-13 0.48073E-13
 0.34972E-13 0.57898E-13 0.20067E-12 0.27628E-12 0.47851E-13 0.24369E-13 0.35527E-13 0.56066E-13 0.43854E-14 0.19568E-14
 0.14225E-14 0.41633E-16 0.83267E-16 -.11102E-15  0.0000     0.55511E-16 0.26312E-13 0.33640E-13 0.22204E-13 0.35028E-13
 0.12934E-12 0.31314E-12 0.78271E-13 0.35583E-13 0.67557E-13 0.28030E-12 0.61340E-14 0.27339E-14 0.46629E-14 0.42535E-14
 0.30531E-15 0.22204E-15 0.11102E-15 0.27756E-15 0.25424E-13 0.57010E-13 0.33917E-13 0.48850E-13 0.16187E-12 0.23997E-12
 0.82268E-13 0.56039E-13 0.28043E-12 0.27916E-11 0.98671E-14 0.58148E-14 0.22204E-14 -.55511E-16 0.44131E-14  0.0000    
 0.16653E-15 0.27756E-15 0.17764E-14 0.26035E-13 0.25868E-13 0.17653E-13 0.90483E-14 0.66058E-14 0.58287E-14 0.45658E-14
 0.62034E-14 0.98949E-14 0.10901E-12 0.81005E-13 0.64032E-13 0.37081E-13 0.72026E-14 -.11102E-15 0.11102E-15 0.11102E-15
 0.33307E-15 0.33307E-15 -.11102E-15 0.38858E-15 0.55511E-16 0.12212E-14 0.14988E-14 0.21788E-14 0.26368E-14 0.59952E-14
 0.80894E-13 0.83669E-13 0.75023E-13 0.49835E-13 0.75842E-14 -.83267E-16 -.11102E-15 0.11102E-15 0.27756E-15 0.33307E-15
 -.55511E-16 0.11102E-15 0.21094E-14 0.29698E-14 0.94369E-15 0.15266E-14 0.46491E-14 0.22066E-14 0.63866E-13 0.75162E-13
 0.74038E-13 0.52000E-13 0.51487E-14 0.10408E-15 0.55511E-16 -.83267E-16 0.55511E-16 0.27756E-15 -.27756E-16 0.22204E-15
 0.33307E-14 0.25674E-14 0.48572E-16 -.41633E-16 0.41772E-14  0.0000     0.37095E-13 0.49766E-13 0.51931E-13 0.34542E-13
 0.25535E-14 0.50307E-14 0.78340E-14 0.74107E-14 0.43299E-14 0.22204E-15 0.15266E-15 0.72164E-15  0.0000     0.79797E-15