PROCAR new format
# of k-points:   55         # of bands:  18         # of ions:   6

 k-point    1 :    0.00000000 0.00000000 0.00000000     weight = 0.00277008

band   1 # energy  -29.21967678 # occ.  2.00000000
 
ion      s      p      d    tot
  1  0.103  0.000  0.000  0.103
  2  0.103  0.000  0.000  0.103
  3  0.115  0.011  0.000  0.126
  4  0.115  0.011  0.000  0.126
  5  0.115  0.011  0.000  0.126
  6  0.115  0.011  0.000  0.126
tot  0.665  0.044  0.000  0.710
 
band   2 # energy  -23.84901060 # occ.  2.00000000
 
ion      s      p      d    tot
  1  0.000  0.027  0.000  0.027
  2  0.000  0.027  0.000  0.027
  3  0.163  0.020  0.000  0.183
  4  0.163  0.020  0.000  0.183
  5  0.163  0.020  0.000  0.183
  6  0.163  0.020  0.000  0.183
tot  0.652  0.132  0.000  0.785
 
band   3 # energy  -19.90953503 # occ.  2.00000000
 
ion      s      p      d    tot
  1  0.000  0.108  0.000  0.108
  2  0.000  0.108  0.000  0.108
  3  0.007  0.012  0.000  0.019
  4  0.207  0.050  0.000  0.257
  5  0.007  0.012  0.000  0.019
  6  0.207  0.050  0.000  0.257
tot  0.428  0.340  0.000  0.767
 
band   4 # energy  -19.90953503 # occ.  2.00000000
 
ion      s      p      d    tot
  1  0.000  0.108  0.000  0.108
  2  0.000  0.108  0.000  0.108
  3  0.207  0.050  0.000  0.257
  4  0.007  0.012  0.000  0.019
  5  0.207  0.050  0.000  0.257
  6  0.007  0.012  0.000  0.019
tot  0.428  0.340  0.000  0.767
 
band   5 # energy  -17.83522234 # occ.  2.00000000
 
ion      s      p      d    tot
  1  0.245  0.000  0.000  0.245
  2  0.245  0.000  0.000  0.245
  3  0.000  0.071  0.000  0.071
  4  0.000  0.071  0.000  0.071
  5  0.000  0.071  0.000  0.071
  6  0.000  0.071  0.000  0.071
tot  0.489  0.284  0.000  0.773
 
band   6 # energy  -14.97026748 # occ.  2.00000000
 
ion      s      p      d    tot
  1  0.070  0.000  0.000  0.070
  2  0.070  0.000  0.000  0.070
  3  0.027  0.137  0.000  0.165
  4  0.027  0.137  0.000  0.165
  5  0.027  0.137  0.000  0.165
  6  0.027  0.137  0.000  0.165
tot  0.247  0.550  0.000  0.797
 
band   7 # energy  -13.66893884 # occ.  2.00000000
 
ion      s      p      d    tot
  1  0.000  0.059  0.000  0.059
  2  0.000  0.059  0.000  0.059
  3  0.002  0.129  0.000  0.131
  4  0.002  0.129  0.000  0.131
  5  0.002  0.129  0.000  0.131
  6  0.002  0.129  0.000  0.131
tot  0.010  0.634  0.000  0.644
 
band   8 # energy  -12.42785806 # occ.  2.00000000
 
ion      s      p      d    tot
  1  0.000  0.124  0.000  0.124
  2  0.000  0.124  0.000  0.124
  3  0.036  0.020  0.000  0.056
  4  0.003  0.203  0.000  0.206
  5  0.036  0.020  0.000  0.056
  6  0.003  0.203  0.000  0.206
tot  0.079  0.694  0.000  0.773
 
band   9 # energy  -12.42785806 # occ.  2.00000000
 
ion      s      p      d    tot
  1  0.000  0.124  0.000  0.124
  2  0.000  0.124  0.000  0.124
  3  0.003  0.203  0.000  0.206
  4  0.036  0.020  0.000  0.056
  5  0.003  0.203  0.000  0.206
  6  0.036  0.020  0.000  0.056
tot  0.079  0.694  0.000  0.773
 
band  10 # energy  -11.95444108 # occ.  2.00000000
 
ion      s      p      d    tot
  1  0.000  0.169  0.000  0.169
  2  0.000  0.169  0.000  0.169
  3  0.000  0.099  0.000  0.099
  4  0.000  0.099  0.000  0.099
  5  0.000  0.099  0.000  0.099
  6  0.000  0.099  0.000  0.099
tot  0.000  0.736  0.000  0.736
 
band  11 # energy   -8.97392772 # occ.  2.00000000
 
ion      s      p      d    tot
  1  0.000  0.000  0.000  0.000
  2  0.000  0.000  0.000  0.000
  3  0.006  0.144  0.000  0.149
  4  0.006  0.144  0.000  0.149
  5  0.006  0.144  0.000  0.149
  6  0.006  0.144  0.000  0.149
tot  0.022  0.574  0.000  0.597
 
band  12 # energy   -8.54001908 # occ.  2.00000000
 
ion      s      p      d    tot
  1  0.000  0.008  0.000  0.008
  2  0.000  0.008  0.000  0.008
  3  0.002  0.157  0.000  0.159
  4  0.002  0.157  0.000  0.159
  5  0.002  0.157  0.000  0.159
  6  0.002  0.157  0.000  0.159
tot  0.009  0.643  0.000  0.652
 
band  13 # energy   -6.15380367 # occ.  2.00000000
 
ion      s      p      d    tot
  1  0.000  0.063  0.000  0.063
  2  0.000  0.063  0.000  0.063
  3  0.055  0.187  0.000  0.242
  4  0.009  0.031  0.000  0.040
  5  0.055  0.187  0.000  0.242
  6  0.009  0.031  0.000  0.040
tot  0.128  0.561  0.000  0.689
 
band  14 # energy   -6.15380367 # occ.  2.00000000
 
ion      s      p      d    tot
  1  0.000  0.063  0.000  0.063
  2  0.000  0.063  0.000  0.063
  3  0.009  0.031  0.000  0.040
  4  0.055  0.187  0.000  0.242
  5  0.009  0.031  0.000  0.040
  6  0.055  0.187  0.000  0.242
tot  0.128  0.561  0.000  0.689
 
band  15 # energy   -0.20750293 # occ.  0.00000000
 
ion      s      p      d    tot
  1  0.000  0.157  0.000  0.157
  2  0.000  0.157  0.000  0.157
  3  0.024  0.020  0.000  0.044
  4  0.024  0.020  0.000  0.044
  5  0.024  0.020  0.000  0.044
  6  0.024  0.020  0.000  0.044
tot  0.095  0.395  0.000  0.491
 
band  16 # energy    0.00602227 # occ.  0.00000000
 
ion      s      p      d    tot
  1  0.000  0.080  0.000  0.080
  2  0.000  0.080  0.000  0.080
  3  0.015  0.114  0.000  0.129
  4  0.008  0.097  0.000  0.105
  5  0.015  0.114  0.000  0.129
  6  0.008  0.097  0.000  0.105
tot  0.045  0.582  0.000  0.628
 
band  17 # energy    0.00602227 # occ.  0.00000000
 
ion      s      p      d    tot
  1  0.000  0.080  0.000  0.080
  2  0.000  0.080  0.000  0.080
  3  0.008  0.097  0.000  0.105
  4  0.015  0.114  0.000  0.129
  5  0.008  0.097  0.000  0.105
  6  0.015  0.114  0.000  0.129
tot  0.045  0.582  0.000  0.628
 
band  18 # energy    1.65636799 # occ.  0.00000000
 
ion      s      p      d    tot
  1  0.000  0.000  0.000  0.000
  2  0.000  0.000  0.000  0.000
  3  0.003  0.005  0.000  0.008
  4  0.003  0.005  0.000  0.008
  5  0.003  0.005  0.000  0.008
  6  0.003  0.005  0.000  0.008
tot  0.012  0.021  0.000  0.033
 

 k-point    2 :    0.05263158 0.00000000 0.00000000     weight = 0.01108033

band   1 # energy  -29.19281610 # occ.  2.00000000
 
ion      s      p      d    tot
  1  0.103  0.000  0.000  0.103
  2  0.103  0.000  0.000  0.103
  3  0.115  0.011  0.000  0.126
  4  0.115  0.011  0.000  0.126
  5  0.115  0.011  0.000  0.126
  6  0.115  0.011  0.000  0.126
tot  0.665  0.045  0.000  0.710
 
band   2 # energy  -23.87350019 # occ.  2.00000000
 
ion      s      p      d    tot
  1  0.000  0.027  0.000  0.027
  2  0.000  0.027  0.000  0.027
  3  0.163  0.020  0.000  0.183
  4  0.163  0.020  0.000  0.183
  5  0.163  0.020  0.000  0.183
  6  0.163  0.020  0.000  0.183
tot  0.650  0.134  0.000  0.785
 
band   3 # energy  -20.08087463 # occ.  2.00000000
 
ion      s      p      d    tot
  1  0.022  0.095  0.000  0.117
  2  0.022  0.095  0.000  0.117
  3  0.099  0.033  0.000  0.132
  4  0.099  0.033  0.000  0.132
  5  0.099  0.033  0.000  0.132
  6  0.099  0.033  0.000  0.132
tot  0.442  0.322  0.000  0.764
 
band   4 # energy  -19.89584396 # occ.  2.00000000
 
ion      s      p      d    tot
  1  0.000  0.107  0.000  0.108
  2  0.000  0.107  0.000  0.108
  3  0.108  0.031  0.000  0.138
  4  0.108  0.031  0.000  0.138
  5  0.108  0.031  0.000  0.138
  6  0.108  0.031  0.000  0.138
tot  0.430  0.338  0.000  0.768
 
band   5 # energy  -17.64278034 # occ.  2.00000000
 
ion      s      p      d    tot
  1  0.222  0.012  0.000  0.234
  2  0.222  0.012  0.000  0.234
  3  0.008  0.069  0.000  0.077
  4  0.008  0.069  0.000  0.077
  5  0.008  0.069  0.000  0.077
  6  0.008  0.069  0.000  0.077
tot  0.475  0.300  0.000  0.775
 
band   6 # energy  -15.05729842 # occ.  2.00000000
 
ion      s      p      d    tot
  1  0.069  0.003  0.000  0.072
  2  0.069  0.003  0.000  0.072
  3  0.027  0.136  0.000  0.163
  4  0.027  0.136  0.000  0.163
  5  0.027  0.136  0.000  0.163
  6  0.027  0.136  0.000  0.163
tot  0.247  0.549  0.000  0.796
 
band   7 # energy  -13.62531528 # occ.  2.00000000
 
ion      s      p      d    tot
  1  0.000  0.060  0.000  0.060
  2  0.000  0.060  0.000  0.060
  3  0.003  0.130  0.000  0.132
  4  0.003  0.130  0.000  0.132
  5  0.003  0.130  0.000  0.132
  6  0.003  0.130  0.000  0.132
tot  0.010  0.639  0.000  0.650
 
band   8 # energy  -12.51306449 # occ.  2.00000000
 
ion      s      p      d    tot
  1  0.000  0.127  0.000  0.127
  2  0.000  0.127  0.000  0.127
  3  0.016  0.110  0.000  0.126
  4  0.016  0.110  0.000  0.126
  5  0.016  0.110  0.000  0.126
  6  0.016  0.110  0.000  0.126
tot  0.065  0.692  0.000  0.758
 
band   9 # energy  -12.48686555 # occ.  2.00000000
 
ion      s      p      d    tot
  1  0.000  0.124  0.000  0.124
  2  0.000  0.124  0.000  0.124
  3  0.020  0.110  0.000  0.130
  4  0.020  0.110  0.000  0.130
  5  0.020  0.110  0.000  0.130
  6  0.020  0.110  0.000  0.130
tot  0.079  0.689  0.000  0.767
 
band  10 # energy  -11.84313404 # occ.  2.00000000
 
ion      s      p      d    tot
  1  0.000  0.164  0.000  0.164
  2  0.000  0.164  0.000  0.164
  3  0.003  0.103  0.000  0.105
  4  0.003  0.103  0.000  0.105
  5  0.003  0.103  0.000  0.105
  6  0.003  0.103  0.000  0.105
tot  0.010  0.738  0.000  0.748
 
band  11 # energy   -8.93918476 # occ.  2.00000000
 
ion      s      p      d    tot
  1  0.000  0.001  0.000  0.001
  2  0.000  0.001  0.000  0.001
  3  0.006  0.144  0.000  0.150
  4  0.006  0.144  0.000  0.150
  5  0.006  0.144  0.000  0.150
  6  0.006  0.144  0.000  0.150
tot  0.023  0.578  0.000  0.601
 
band  12 # energy   -8.51733794 # occ.  2.00000000
 
ion      s      p      d    tot
  1  0.000  0.008  0.000  0.008
  2  0.000  0.008  0.000  0.008
  3  0.002  0.157  0.000  0.159
  4  0.002  0.157  0.000  0.159
  5  0.002  0.157  0.000  0.159
  6  0.002  0.157  0.000  0.159
tot  0.008  0.646  0.000  0.653
 
band  13 # energy   -6.17840265 # occ.  2.00000000
 
ion      s      p      d    tot
  1  0.000  0.062  0.000  0.062
  2  0.000  0.062  0.000  0.062
  3  0.032  0.108  0.000  0.141
  4  0.032  0.108  0.000  0.141
  5  0.032  0.108  0.000  0.141
  6  0.032  0.108  0.000  0.141
tot  0.130  0.557  0.000  0.686
 
band  14 # energy   -6.12845349 # occ.  2.00000000
 
ion      s      p      d    tot
  1  0.001  0.061  0.000  0.062
  2  0.001  0.061  0.000  0.062
  3  0.032  0.109  0.000  0.141
  4  0.032  0.109  0.000  0.141
  5  0.032  0.109  0.000  0.141
  6  0.032  0.109  0.000  0.141
tot  0.129  0.560  0.000  0.689
 
band  15 # energy   -0.16306607 # occ.  0.00000000
 
ion      s      p      d    tot
  1  0.000  0.144  0.000  0.145
  2  0.000  0.144  0.000  0.145
  3  0.021  0.032  0.000  0.053
  4  0.021  0.032  0.000  0.053
  5  0.021  0.032  0.000  0.053
  6  0.021  0.032  0.000  0.053
tot  0.085  0.417  0.000  0.502
 
band  16 # energy   -0.01189228 # occ.  0.00000000
 
ion      s      p      d    tot
  1  0.000  0.079  0.000  0.079
  2  0.000  0.079  0.000  0.079
  3  0.012  0.104  0.000  0.116
  4  0.012  0.104  0.000  0.116
  5  0.012  0.104  0.000  0.116
  6  0.012  0.104  0.000  0.116
tot  0.049  0.572  0.000  0.621
 
band  17 # energy    0.06578596 # occ.  0.00000000
 
ion      s      p      d    tot
  1  0.000  0.093  0.000  0.093
  2  0.000  0.093  0.000  0.093
  3  0.014  0.094  0.000  0.108
  4  0.014  0.094  0.000  0.108
  5  0.014  0.094  0.000  0.108
  6  0.014  0.094  0.000  0.108
tot  0.055  0.562  0.000  0.618
 
band  18 # energy    1.70014203 # occ.  0.00000000
 
ion      s      p      d    tot
  1  0.000  0.000  0.000  0.000
  2  0.000  0.000  0.000  0.000
  3  0.003  0.006  0.000  0.009
  4  0.003  0.006  0.000  0.009
  5  0.003  0.006  0.000  0.009
  6  0.003  0.006  0.000  0.009
tot  0.011  0.024  0.000  0.035
 

 k-point    3 :    0.10526316 0.00000000 0.00000000     weight = 0.01108033

band   1 # energy  -29.11230466 # occ.  2.00000000
 
ion      s      p      d    tot
  1  0.102  0.001  0.000  0.103
  2  0.102  0.001  0.000  0.103
  3  0.115  0.012  0.000  0.126
  4  0.115  0.012  0.000  0.126
  5  0.115  0.012  0.000  0.126
  6  0.115  0.012  0.000  0.126
tot  0.663  0.048  0.000  0.711
 
band   2 # energy  -23.95603181 # occ.  2.00000000
 
ion      s      p      d    tot
  1  0.001  0.029  0.000  0.030
  2  0.001  0.029  0.000  0.030
  3  0.161  0.020  0.000  0.181
  4  0.161  0.020  0.000  0.181
  5  0.161  0.020  0.000  0.181
  6  0.161  0.020  0.000  0.181
tot  0.645  0.139  0.000  0.784
 
band   3 # energy  -20.44096470 # occ.  2.00000000
 
ion      s      p      d    tot
  1  0.054  0.076  0.000  0.129
  2  0.054  0.076  0.000  0.129
  3  0.090  0.035  0.000  0.125
  4  0.090  0.035  0.000  0.125
  5  0.090  0.035  0.000  0.125
  6  0.090  0.035  0.000  0.125
tot  0.468  0.290  0.000  0.758
 
band   4 # energy  -19.85689263 # occ.  2.00000000
 
ion      s      p      d    tot
  1  0.001  0.106  0.000  0.106
  2  0.001  0.106  0.000  0.106
  3  0.110  0.030  0.000  0.139
  4  0.110  0.030  0.000  0.139
  5  0.110  0.030  0.000  0.139
  6  0.110  0.030  0.000  0.139
tot  0.439  0.331  0.000  0.770
 
band   5 # energy  -17.21684407 # occ.  2.00000000
 
ion      s      p      d    tot
  1  0.187  0.031  0.000  0.218
  2  0.187  0.031  0.000  0.218
  3  0.018  0.067  0.000  0.085
  4  0.018  0.067  0.000  0.085
  5  0.018  0.067  0.000  0.085
  6  0.018  0.067  0.000  0.085
tot  0.447  0.330  0.000  0.777
 
band   6 # energy  -15.29992877 # occ.  2.00000000
 
ion      s      p      d    tot
  1  0.068  0.011  0.000  0.079
  2  0.068  0.011  0.000  0.079
  3  0.027  0.131  0.000  0.158
  4  0.027  0.131  0.000  0.158
  5  0.027  0.131  0.000  0.158
  6  0.027  0.131  0.000  0.158
tot  0.245  0.545  0.000  0.790
 
band   7 # energy  -13.50240002 # occ.  2.00000000
 
ion      s      p      d    tot
  1  0.001  0.064  0.000  0.065
  2  0.001  0.064  0.000  0.065
  3  0.003  0.132  0.000  0.135
  4  0.003  0.132  0.000  0.135
  5  0.003  0.132  0.000  0.135
  6  0.003  0.132  0.000  0.135
tot  0.012  0.658  0.000  0.670
 
band   8 # energy  -12.64108463 # occ.  2.00000000
 
ion      s      p      d    tot
  1  0.000  0.121  0.000  0.121
  2  0.000  0.121  0.000  0.121
  3  0.019  0.107  0.000  0.127
  4  0.019  0.107  0.000  0.127
  5  0.019  0.107  0.000  0.127
  6  0.019  0.107  0.000  0.127
tot  0.079  0.672  0.000  0.751
 
band   9 # energy  -12.62541413 # occ.  2.00000000
 
ion      s      p      d    tot
  1  0.002  0.125  0.000  0.127
  2  0.002  0.125  0.000  0.127
  3  0.013  0.110  0.000  0.122
  4  0.013  0.110  0.000  0.122
  5  0.013  0.110  0.000  0.122
  6  0.013  0.110  0.000  0.122
tot  0.054  0.689  0.000  0.743
 
band  10 # energy  -11.67039406 # occ.  2.00000000
 
ion      s      p      d    tot
  1  0.000  0.158  0.000  0.158
  2  0.000  0.158  0.000  0.158
  3  0.004  0.106  0.000  0.110
  4  0.004  0.106  0.000  0.110
  5  0.004  0.106  0.000  0.110
  6  0.004  0.106  0.000  0.110
tot  0.015  0.741  0.000  0.755
 
band  11 # energy   -8.83765499 # occ.  2.00000000
 
ion      s      p      d    tot
  1  0.000  0.003  0.000  0.003
  2  0.000  0.003  0.000  0.003
  3  0.006  0.146  0.000  0.152
  4  0.006  0.146  0.000  0.152
  5  0.006  0.146  0.000  0.152
  6  0.006  0.146  0.000  0.152
tot  0.025  0.589  0.000  0.614
 
band  12 # energy   -8.45999917 # occ.  2.00000000
 
ion      s      p      d    tot
  1  0.000  0.010  0.000  0.010
  2  0.000  0.010  0.000  0.010
  3  0.002  0.158  0.000  0.159
  4  0.002  0.158  0.000  0.159
  5  0.002  0.158  0.000  0.159
  6  0.002  0.158  0.000  0.159
tot  0.006  0.651  0.000  0.657
 
band  13 # energy   -6.24121618 # occ.  2.00000000
 
ion      s      p      d    tot
  1  0.000  0.059  0.000  0.059
  2  0.000  0.059  0.000  0.059
  3  0.033  0.107  0.000  0.140
  4  0.033  0.107  0.000  0.140
  5  0.033  0.107  0.000  0.140
  6  0.033  0.107  0.000  0.140
tot  0.133  0.546  0.000  0.679
 
band  14 # energy   -6.05132381 # occ.  2.00000000
 
ion      s      p      d    tot
  1  0.003  0.057  0.000  0.060
  2  0.003  0.057  0.000  0.060
  3  0.032  0.111  0.000  0.142
  4  0.032  0.111  0.000  0.142
  5  0.032  0.111  0.000  0.142
  6  0.032  0.111  0.000  0.142
tot  0.132  0.557  0.000  0.690
 
band  15 # energy   -0.05948929 # occ.  0.00000000
 
ion      s      p      d    tot
  1  0.001  0.116  0.000  0.116
  2  0.001  0.116  0.000  0.116
  3  0.016  0.057  0.000  0.073
  4  0.016  0.057  0.000  0.073
  5  0.016  0.057  0.000  0.073
  6  0.016  0.057  0.000  0.073
tot  0.065  0.458  0.000  0.523
 
band  16 # energy   -0.05886215 # occ.  0.00000000
 
ion      s      p      d    tot
  1  0.000  0.075  0.000  0.076
  2  0.000  0.075  0.000  0.076
  3  0.015  0.099  0.000  0.114
  4  0.015  0.099  0.000  0.114
  5  0.015  0.099  0.000  0.114
  6  0.015  0.099  0.000  0.114
tot  0.059  0.547  0.000  0.606
 
band  17 # energy    0.26490772 # occ.  0.00000000
 
ion      s      p      d    tot
  1  0.000  0.120  0.000  0.120
  2  0.000  0.120  0.000  0.120
  3  0.019  0.071  0.000  0.090
  4  0.019  0.071  0.000  0.090
  5  0.019  0.071  0.000  0.090
  6  0.019  0.071  0.000  0.090
tot  0.075  0.525  0.000  0.600
 
band  18 # energy    1.82808083 # occ.  0.00000000
 
ion      s      p      d    tot
  1  0.000  0.002  0.000  0.002
  2  0.000  0.002  0.000  0.002
  3  0.002  0.007  0.000  0.009
  4  0.002  0.007  0.000  0.009
  5  0.002  0.007  0.000  0.009
  6  0.002  0.007  0.000  0.009
tot  0.010  0.031  0.000  0.041
 

 k-point    4 :    0.15789474 0.00000000 0.00000000     weight = 0.01108033

band   1 # energy  -28.97858256 # occ.  2.00000000
 
ion      s      p      d    tot
  1  0.101  0.002  0.000  0.103
  2  0.101  0.002  0.000  0.103
  3  0.115  0.012  0.000  0.127
  4  0.115  0.012  0.000  0.127
  5  0.115  0.012  0.000  0.127
  6  0.115  0.012  0.000  0.127
tot  0.660  0.052  0.000  0.712
 
band   2 # energy  -24.12015326 # occ.  2.00000000
 
ion      s      p      d    tot
  1  0.005  0.031  0.000  0.036
  2  0.005  0.031  0.000  0.036
  3  0.156  0.021  0.000  0.178
  4  0.156  0.021  0.000  0.178
  5  0.156  0.021  0.000  0.178
  6  0.156  0.021  0.000  0.178
tot  0.635  0.147  0.000  0.781
 
band   3 # energy  -20.79086678 # occ.  2.00000000
 
ion      s      p      d    tot
  1  0.073  0.059  0.000  0.132
  2  0.073  0.059  0.000  0.132
  3  0.088  0.035  0.000  0.122
  4  0.088  0.035  0.000  0.122
  5  0.088  0.035  0.000  0.122
  6  0.088  0.035  0.000  0.122
tot  0.496  0.258  0.000  0.754
 
band   4 # energy  -19.79989268 # occ.  2.00000000
 
ion      s      p      d    tot
  1  0.002  0.103  0.000  0.104
  2  0.002  0.103  0.000  0.104
  3  0.113  0.028  0.000  0.141
  4  0.113  0.028  0.000  0.141
  5  0.113  0.028  0.000  0.141
  6  0.113  0.028  0.000  0.141
tot  0.455  0.319  0.000  0.774
 
band   5 # energy  -16.75127585 # occ.  2.00000000
 
ion      s      p      d    tot
  1  0.159  0.045  0.000  0.204
  2  0.159  0.045  0.000  0.204
  3  0.025  0.068  0.000  0.092
  4  0.025  0.068  0.000  0.092
  5  0.025  0.068  0.000  0.092
  6  0.025  0.068  0.000  0.092
tot  0.417  0.359  0.000  0.776
 
band   6 # energy  -15.64755658 # occ.  2.00000000
 
ion      s      p      d    tot
  1  0.067  0.020  0.000  0.087
  2  0.067  0.020  0.000  0.087
  3  0.026  0.126  0.000  0.152
  4  0.026  0.126  0.000  0.152
  5  0.026  0.126  0.000  0.152
  6  0.026  0.126  0.000  0.152
tot  0.237  0.543  0.000  0.780
 
band   7 # energy  -13.36146321 # occ.  2.00000000
 
ion      s      p      d    tot
  1  0.003  0.082  0.000  0.085
  2  0.003  0.082  0.000  0.085
  3  0.003  0.133  0.000  0.136
  4  0.003  0.133  0.000  0.136
  5  0.003  0.133  0.000  0.136
  6  0.003  0.133  0.000  0.136
tot  0.019  0.696  0.000  0.716
 
band   8 # energy  -12.79346652 # occ.  2.00000000
 
ion      s      p      d    tot
  1  0.000  0.106  0.000  0.107
  2  0.000  0.106  0.000  0.107
  3  0.019  0.106  0.000  0.125
  4  0.019  0.106  0.000  0.125
  5  0.019  0.106  0.000  0.125
  6  0.019  0.106  0.000  0.125
tot  0.075  0.638  0.000  0.713
 
band   9 # energy  -12.67825765 # occ.  2.00000000
 
ion      s      p      d    tot
  1  0.004  0.121  0.000  0.126
  2  0.004  0.121  0.000  0.126
  3  0.010  0.111  0.000  0.121
  4  0.010  0.111  0.000  0.121
  5  0.010  0.111  0.000  0.121
  6  0.010  0.111  0.000  0.121
tot  0.049  0.687  0.000  0.736
 
band  10 # energy  -11.56228677 # occ.  2.00000000
 
ion      s      p      d    tot
  1  0.000  0.150  0.000  0.151
  2  0.000  0.150  0.000  0.151
  3  0.003  0.109  0.000  0.113
  4  0.003  0.109  0.000  0.113
  5  0.003  0.109  0.000  0.113
  6  0.003  0.109  0.000  0.113
tot  0.014  0.737  0.000  0.751
 
band  11 # energy   -8.68514636 # occ.  2.00000000
 
ion      s      p      d    tot
  1  0.000  0.006  0.000  0.006
  2  0.000  0.006  0.000  0.006
  3  0.007  0.148  0.000  0.155
  4  0.007  0.148  0.000  0.155
  5  0.007  0.148  0.000  0.155
  6  0.007  0.148  0.000  0.155
tot  0.028  0.605  0.000  0.633
 
band  12 # energy   -8.39584298 # occ.  2.00000000
 
ion      s      p      d    tot
  1  0.000  0.013  0.000  0.013
  2  0.000  0.013  0.000  0.013
  3  0.002  0.157  0.000  0.159
  4  0.002  0.157  0.000  0.159
  5  0.002  0.157  0.000  0.159
  6  0.002  0.157  0.000  0.159
tot  0.008  0.653  0.000  0.662
 
band  13 # energy   -6.31141592 # occ.  2.00000000
 
ion      s      p      d    tot
  1  0.001  0.053  0.000  0.054
  2  0.001  0.053  0.000  0.054
  3  0.033  0.107  0.000  0.140
  4  0.033  0.107  0.000  0.140
  5  0.033  0.107  0.000  0.140
  6  0.033  0.107  0.000  0.140
tot  0.135  0.534  0.000  0.668
 
band  14 # energy   -5.92199884 # occ.  2.00000000
 
ion      s      p      d    tot
  1  0.006  0.051  0.000  0.057
  2  0.006  0.051  0.000  0.057
  3  0.030  0.114  0.000  0.145
  4  0.030  0.114  0.000  0.145
  5  0.030  0.114  0.000  0.145
  6  0.030  0.114  0.000  0.145
tot  0.133  0.559  0.000  0.692
 
band  15 # energy   -0.11782395 # occ.  0.00000000
 
ion      s      p      d    tot
  1  0.001  0.071  0.000  0.072
  2  0.001  0.071  0.000  0.072
  3  0.018  0.093  0.000  0.110
  4  0.018  0.093  0.000  0.110
  5  0.018  0.093  0.000  0.110
  6  0.018  0.093  0.000  0.110
tot  0.072  0.513  0.000  0.586
 
band  16 # energy    0.08265407 # occ.  0.00000000
 
ion      s      p      d    tot
  1  0.001  0.097  0.000  0.099
  2  0.001  0.097  0.000  0.099
  3  0.013  0.071  0.000  0.083
  4  0.013  0.071  0.000  0.083
  5  0.013  0.071  0.000  0.083
  6  0.013  0.071  0.000  0.083
tot  0.054  0.477  0.000  0.530
 
band  17 # energy    0.59081327 # occ.  0.00000000
 
ion      s      p      d    tot
  1  0.000  0.136  0.000  0.136
  2  0.000  0.136  0.000  0.136
  3  0.021  0.061  0.000  0.082
  4  0.021  0.061  0.000  0.082
  5  0.021  0.061  0.000  0.082
  6  0.021  0.061  0.000  0.082
tot  0.085  0.516  0.000  0.601
 
band  18 # energy    2.03320434 # occ.  0.00000000
 
ion      s      p      d    tot
  1  0.000  0.002  0.000  0.003
  2  0.000  0.002  0.000  0.003
  3  0.002  0.008  0.000  0.010
  4  0.002  0.008  0.000  0.010
  5  0.002  0.008  0.000  0.010
  6  0.002  0.008  0.000  0.010
tot  0.008  0.037  0.000  0.045
 

 k-point    5 :    0.21052632 0.00000000 0.00000000     weight = 0.01108033

band   1 # energy  -28.79228717 # occ.  2.00000000
 
ion      s      p      d    tot
  1  0.099  0.004  0.000  0.102
  2  0.099  0.004  0.000  0.102
  3  0.115  0.013  0.000  0.127
  4  0.115  0.013  0.000  0.127
  5  0.115  0.013  0.000  0.127
  6  0.115  0.013  0.000  0.127
tot  0.656  0.058  0.000  0.714
 
band   2 # energy  -24.38825655 # occ.  2.00000000
 
ion      s      p      d    tot
  1  0.013  0.033  0.000  0.046
  2  0.013  0.033  0.000  0.046
  3  0.149  0.022  0.000  0.171
  4  0.149  0.022  0.000  0.171
  5  0.149  0.022  0.000  0.171
  6  0.149  0.022  0.000  0.171
tot  0.623  0.154  0.000  0.776
 
band   3 # energy  -21.02866809 # occ.  2.00000000
 
ion      s      p      d    tot
  1  0.080  0.047  0.000  0.128
  2  0.080  0.047  0.000  0.128
  3  0.091  0.034  0.000  0.125
  4  0.091  0.034  0.000  0.125
  5  0.091  0.034  0.000  0.125
  6  0.091  0.034  0.000  0.125
tot  0.524  0.230  0.000  0.754
 
band   4 # energy  -19.73854927 # occ.  2.00000000
 
ion      s      p      d    tot
  1  0.004  0.098  0.000  0.101
  2  0.004  0.098  0.000  0.101
  3  0.118  0.027  0.000  0.144
  4  0.118  0.027  0.000  0.144
  5  0.118  0.027  0.000  0.144
  6  0.118  0.027  0.000  0.144
tot  0.479  0.301  0.000  0.780
 
band   5 # energy  -16.35049745 # occ.  2.00000000
 
ion      s      p      d    tot
  1  0.134  0.055  0.000  0.189
  2  0.134  0.055  0.000  0.189
  3  0.028  0.070  0.000  0.098
  4  0.028  0.070  0.000  0.098
  5  0.028  0.070  0.000  0.098
  6  0.028  0.070  0.000  0.098
tot  0.382  0.390  0.000  0.772
 
band   6 # energy  -16.03433767 # occ.  2.00000000
 
ion      s      p      d    tot
  1  0.065  0.030  0.000  0.095
  2  0.065  0.030  0.000  0.095
  3  0.023  0.121  0.000  0.144
  4  0.023  0.121  0.000  0.144
  5  0.023  0.121  0.000  0.144
  6  0.023  0.121  0.000  0.144
tot  0.222  0.545  0.000  0.768
 
band   7 # energy  -13.41385164 # occ.  2.00000000
 
ion      s      p      d    tot
  1  0.008  0.116  0.000  0.124
  2  0.008  0.116  0.000  0.124
  3  0.006  0.118  0.000  0.124
  4  0.006  0.118  0.000  0.124
  5  0.006  0.118  0.000  0.124
  6  0.006  0.118  0.000  0.124
tot  0.041  0.704  0.000  0.746
 
band   8 # energy  -12.69339543 # occ.  2.00000000
 
ion      s      p      d    tot
  1  0.001  0.078  0.000  0.078
  2  0.001  0.078  0.000  0.078
  3  0.014  0.121  0.000  0.135
  4  0.014  0.121  0.000  0.135
  5  0.014  0.121  0.000  0.135
  6  0.014  0.121  0.000  0.135
tot  0.057  0.639  0.000  0.696
 
band   9 # energy  -12.67976946 # occ.  2.00000000
 
ion      s      p      d    tot
  1  0.007  0.120  0.000  0.127
  2  0.007  0.120  0.000  0.127
  3  0.008  0.112  0.000  0.120
  4  0.008  0.112  0.000  0.120
  5  0.008  0.112  0.000  0.120
  6  0.008  0.112  0.000  0.120
tot  0.045  0.688  0.000  0.733
 
band  10 # energy  -11.53953235 # occ.  2.00000000
 
ion      s      p      d    tot
  1  0.001  0.140  0.000  0.141
  2  0.001  0.140  0.000  0.141
  3  0.003  0.112  0.000  0.115
  4  0.003  0.112  0.000  0.115
  5  0.003  0.112  0.000  0.115
  6  0.003  0.112  0.000  0.115
tot  0.015  0.727  0.000  0.742
 
band  11 # energy   -8.51690752 # occ.  2.00000000
 
ion      s      p      d    tot
  1  0.000  0.010  0.000  0.011
  2  0.000  0.010  0.000  0.011
  3  0.009  0.149  0.000  0.158
  4  0.009  0.149  0.000  0.158
  5  0.009  0.149  0.000  0.158
  6  0.009  0.149  0.000  0.158
tot  0.036  0.616  0.000  0.652
 
band  12 # energy   -8.35807368 # occ.  2.00000000
 
ion      s      p      d    tot
  1  0.001  0.016  0.000  0.017
  2  0.001  0.016  0.000  0.017
  3  0.005  0.153  0.000  0.158
  4  0.005  0.153  0.000  0.158
  5  0.005  0.153  0.000  0.158
  6  0.005  0.153  0.000  0.158
tot  0.020  0.645  0.000  0.665
 
band  13 # energy   -6.34465295 # occ.  2.00000000
 
ion      s      p      d    tot
  1  0.001  0.047  0.000  0.048
  2  0.001  0.047  0.000  0.048
  3  0.032  0.109  0.000  0.140
  4  0.032  0.109  0.000  0.140
  5  0.032  0.109  0.000  0.140
  6  0.032  0.109  0.000  0.140
tot  0.129  0.528  0.000  0.657
 
band  14 # energy   -5.74741379 # occ.  2.00000000
 
ion      s      p      d    tot
  1  0.008  0.045  0.000  0.053
  2  0.008  0.045  0.000  0.053
  3  0.028  0.119  0.000  0.148
  4  0.028  0.119  0.000  0.148
  5  0.028  0.119  0.000  0.148
  6  0.028  0.119  0.000  0.148
tot  0.128  0.568  0.000  0.696
 
band  15 # energy   -0.16805428 # occ.  0.00000000
 
ion      s      p      d    tot
  1  0.001  0.068  0.000  0.069
  2  0.001  0.068  0.000  0.069
  3  0.021  0.086  0.000  0.107
  4  0.021  0.086  0.000  0.107
  5  0.021  0.086  0.000  0.107
  6  0.021  0.086  0.000  0.107
tot  0.087  0.478  0.000  0.565
 
band  16 # energy    0.27443983 # occ.  0.00000000
 
ion      s      p      d    tot
  1  0.003  0.088  0.000  0.091
  2  0.003  0.088  0.000  0.091
  3  0.011  0.075  0.000  0.087
  4  0.011  0.075  0.000  0.087
  5  0.011  0.075  0.000  0.087
  6  0.011  0.075  0.000  0.087
tot  0.051  0.478  0.000  0.529
 
band  17 # energy    0.96853424 # occ.  0.00000000
 
ion      s      p      d    tot
  1  0.000  0.138  0.000  0.138
  2  0.000  0.138  0.000  0.138
  3  0.023  0.062  0.000  0.085
  4  0.023  0.062  0.000  0.085
  5  0.023  0.062  0.000  0.085
  6  0.023  0.062  0.000  0.085
tot  0.090  0.527  0.000  0.617
 
band  18 # energy    2.30967012 # occ.  0.00000000
 
ion      s      p      d    tot
  1  0.000  0.003  0.000  0.003
  2  0.000  0.003  0.000  0.003
  3  0.002  0.009  0.000  0.011
  4  0.002  0.009  0.000  0.011
  5  0.002  0.009  0.000  0.011
  6  0.002  0.009  0.000  0.011
tot  0.007  0.042  0.000  0.049
 

 k-point    6 :    0.26315789 0.00000000 0.00000000     weight = 0.01108033

band   1 # energy  -28.55441450 # occ.  2.00000000
 
ion      s      p      d    tot
  1  0.096  0.006  0.000  0.101
  2  0.096  0.006  0.000  0.101
  3  0.115  0.014  0.000  0.128
  4  0.115  0.014  0.000  0.128
  5  0.115  0.014  0.000  0.128
  6  0.115  0.014  0.000  0.128
tot  0.651  0.066  0.000  0.717
 
band   2 # energy  -24.75967569 # occ.  2.00000000
 
ion      s      p      d    tot
  1  0.025  0.033  0.000  0.058
  2  0.025  0.033  0.000  0.058
  3  0.141  0.022  0.000  0.163
  4  0.141  0.022  0.000  0.163
  5  0.141  0.022  0.000  0.163
  6  0.141  0.022  0.000  0.163
tot  0.613  0.156  0.000  0.769
 
band   3 # energy  -21.12136358 # occ.  2.00000000
 
ion      s      p      d    tot
  1  0.079  0.039  0.000  0.119
  2  0.079  0.039  0.000  0.119
  3  0.097  0.033  0.000  0.130
  4  0.097  0.033  0.000  0.130
  5  0.097  0.033  0.000  0.130
  6  0.097  0.033  0.000  0.130
tot  0.548  0.210  0.000  0.758
 
band   4 # energy  -19.69567274 # occ.  2.00000000
 
ion      s      p      d    tot
  1  0.008  0.090  0.000  0.097
  2  0.008  0.090  0.000  0.097
  3  0.124  0.024  0.000  0.148
  4  0.124  0.024  0.000  0.148
  5  0.124  0.024  0.000  0.148
  6  0.124  0.024  0.000  0.148
tot  0.511  0.277  0.000  0.787
 
band   5 # energy  -16.39518576 # occ.  2.00000000
 
ion      s      p      d    tot
  1  0.062  0.041  0.000  0.103
  2  0.062  0.041  0.000  0.103
  3  0.019  0.118  0.000  0.137
  4  0.019  0.118  0.000  0.137