<?xml version="1.0" encoding="ISO-8859-1"?>
<modeling>
 <generator>
  <i name="program" type="string">vasp </i>
  <i name="version" type="string">5.4.1  </i>
  <i name="subversion" type="string">24Jun15 (build Jul 24 2020 21:16:16) complex                          parallel </i>
  <i name="platform" type="string">IFC91_ompi </i>
  <i name="date" type="string">2022 05 17 </i>
  <i name="time" type="string">17:00:43 </i>
 </generator>
 <incar>
  <i type="string" name="PREC">normal</i>
  <i type="string" name="ALGO">  Normal</i>
  <i type="int" name="ISPIN">     1</i>
  <i type="int" name="ICHARG">     2</i>
  <i type="int" name="NELM">   100</i>
  <i type="int" name="NELMDL">    -5</i>
  <i type="int" name="NELMIN">     6</i>
  <i type="int" name="IBRION">     2</i>
  <i name="EDIFF">      0.00001000</i>
  <i name="EDIFFG">     -0.01000000</i>
  <i type="int" name="NSW">     0</i>
  <i type="int" name="ISIF">     2</i>
  <i type="int" name="ISYM">     2</i>
  <i name="ENCUT">    500.00000000</i>
  <i name="POTIM">      0.25000000</i>
  <i type="logical" name="LREAL"> F  </i>
  <i type="int" name="ISMEAR">     0</i>
  <i name="SIGMA">      0.05000000</i>
  <i type="logical" name="KGAMMA"> F  </i>
  <i type="logical" name="LWAVE"> T  </i>
  <i type="logical" name="LCHARG"> T  </i>
  <i type="logical" name="LORBIT"> F  </i>
  <i type="logical" name="LELF"> T  </i>
  <v type="int" name="KPOINT_BSE">    -1     0     0     0</v>
  <i type="int" name="NELM">   100</i>
 </incar>
 <kpoints>
  <generation param="Monkhorst-Pack">
   <v type="int" name="divisions">      19       19        1 </v>
   <v name="usershift">      0.00000000       0.00000000       0.00000000 </v>
   <v name="genvec1">      0.05263158       0.00000000       0.00000000 </v>
   <v name="genvec2">      0.00000000       0.05263158       0.00000000 </v>
   <v name="genvec3">      0.00000000       0.00000000       1.00000000 </v>
   <v name="shift">      0.00000000       0.00000000       0.00000000 </v>
  </generation>
  <varray name="kpointlist" >
   <v>       0.00000000       0.00000000       0.00000000 </v>
   <v>       0.05263158       0.00000000       0.00000000 </v>
   <v>       0.10526316       0.00000000       0.00000000 </v>
   <v>       0.15789474       0.00000000       0.00000000 </v>
   <v>       0.21052632       0.00000000       0.00000000 </v>
   <v>       0.26315789       0.00000000       0.00000000 </v>
   <v>       0.31578947       0.00000000       0.00000000 </v>
   <v>       0.36842105       0.00000000       0.00000000 </v>
   <v>       0.42105263       0.00000000       0.00000000 </v>
   <v>       0.47368421       0.00000000       0.00000000 </v>
   <v>       0.05263158       0.05263158       0.00000000 </v>
   <v>       0.10526316       0.05263158       0.00000000 </v>
   <v>       0.15789474       0.05263158       0.00000000 </v>
   <v>       0.21052632       0.05263158       0.00000000 </v>
   <v>       0.26315789       0.05263158       0.00000000 </v>
   <v>       0.31578947       0.05263158       0.00000000 </v>
   <v>       0.36842105       0.05263158       0.00000000 </v>
   <v>       0.42105263       0.05263158       0.00000000 </v>
   <v>       0.47368421       0.05263158       0.00000000 </v>
   <v>       0.10526316       0.10526316       0.00000000 </v>
   <v>       0.15789474       0.10526316       0.00000000 </v>
   <v>       0.21052632       0.10526316       0.00000000 </v>
   <v>       0.26315789       0.10526316       0.00000000 </v>
   <v>       0.31578947       0.10526316       0.00000000 </v>
   <v>       0.36842105       0.10526316       0.00000000 </v>
   <v>       0.42105263       0.10526316       0.00000000 </v>
   <v>       0.47368421       0.10526316       0.00000000 </v>
   <v>       0.15789474       0.15789474       0.00000000 </v>
   <v>       0.21052632       0.15789474       0.00000000 </v>
   <v>       0.26315789       0.15789474       0.00000000 </v>
   <v>       0.31578947       0.15789474       0.00000000 </v>
   <v>       0.36842105       0.15789474       0.00000000 </v>
   <v>       0.42105263       0.15789474       0.00000000 </v>
   <v>       0.47368421       0.15789474       0.00000000 </v>
   <v>       0.21052632       0.21052632       0.00000000 </v>
   <v>       0.26315789       0.21052632       0.00000000 </v>
   <v>       0.31578947       0.21052632       0.00000000 </v>
   <v>       0.36842105       0.21052632       0.00000000 </v>
   <v>       0.42105263       0.21052632       0.00000000 </v>
   <v>       0.47368421       0.21052632       0.00000000 </v>
   <v>       0.26315789       0.26315789       0.00000000 </v>
   <v>       0.31578947       0.26315789       0.00000000 </v>
   <v>       0.36842105       0.26315789       0.00000000 </v>
   <v>       0.42105263       0.26315789       0.00000000 </v>
   <v>       0.47368421       0.26315789       0.00000000 </v>
   <v>       0.31578947       0.31578947       0.00000000 </v>
   <v>       0.36842105       0.31578947       0.00000000 </v>
   <v>       0.42105263       0.31578947       0.00000000 </v>
   <v>       0.47368421       0.31578947       0.00000000 </v>
   <v>       0.36842105       0.36842105       0.00000000 </v>
   <v>       0.42105263       0.36842105       0.00000000 </v>
   <v>       0.47368421       0.36842105       0.00000000 </v>
   <v>       0.42105263       0.42105263       0.00000000 </v>
   <v>       0.47368421       0.42105263       0.00000000 </v>
   <v>       0.47368421       0.47368421       0.00000000 </v>
  </varray>
  <varray name="weights" >
   <v>       0.00277008 </v>
   <v>       0.01108033 </v>
   <v>       0.01108033 </v>
   <v>       0.01108033 </v>
   <v>       0.01108033 </v>
   <v>       0.01108033 </v>
   <v>       0.01108033 </v>
   <v>       0.01108033 </v>
   <v>       0.01108033 </v>
   <v>       0.01108033 </v>
   <v>       0.01108033 </v>
   <v>       0.02216066 </v>
   <v>       0.02216066 </v>
   <v>       0.02216066 </v>
   <v>       0.02216066 </v>
   <v>       0.02216066 </v>
   <v>       0.02216066 </v>
   <v>       0.02216066 </v>
   <v>       0.02216066 </v>
   <v>       0.01108033 </v>
   <v>       0.02216066 </v>
   <v>       0.02216066 </v>
   <v>       0.02216066 </v>
   <v>       0.02216066 </v>
   <v>       0.02216066 </v>
   <v>       0.02216066 </v>
   <v>       0.02216066 </v>
   <v>       0.01108033 </v>
   <v>       0.02216066 </v>
   <v>       0.02216066 </v>
   <v>       0.02216066 </v>
   <v>       0.02216066 </v>
   <v>       0.02216066 </v>
   <v>       0.02216066 </v>
   <v>       0.01108033 </v>
   <v>       0.02216066 </v>
   <v>       0.02216066 </v>
   <v>       0.02216066 </v>
   <v>       0.02216066 </v>
   <v>       0.02216066 </v>
   <v>       0.01108033 </v>
   <v>       0.02216066 </v>
   <v>       0.02216066 </v>
   <v>       0.02216066 </v>
   <v>       0.02216066 </v>
   <v>       0.01108033 </v>
   <v>       0.02216066 </v>
   <v>       0.02216066 </v>
   <v>       0.02216066 </v>
   <v>       0.01108033 </v>
   <v>       0.02216066 </v>
   <v>       0.02216066 </v>
   <v>       0.01108033 </v>
   <v>       0.02216066 </v>
   <v>       0.01108033 </v>
  </varray>
 </kpoints>
 <parameters>
  <separator name="general" >
   <i type="string" name="SYSTEM">unknown system</i>
   <i type="logical" name="LCOMPAT"> F  </i>
  </separator>
  <separator name="electronic" >
   <i type="string" name="PREC">normal</i>
   <i name="ENMAX">    500.00000000</i>
   <i name="ENAUG">    644.87300000</i>
   <i name="EDIFF">      0.00001000</i>
   <i type="int" name="IALGO">    38</i>
   <i type="int" name="IWAVPR">    10</i>
   <i type="int" name="NBANDS">    18</i>
   <i name="NELECT">     28.00000000</i>
   <i type="int" name="TURBO">     0</i>
   <i type="int" name="IRESTART">     0</i>
   <i type="int" name="NREBOOT">     0</i>
   <i type="int" name="NMIN">     0</i>
   <i name="EREF">      0.00000000</i>
   <separator name="electronic smearing" >
    <i type="int" name="ISMEAR">     0</i>
    <i name="SIGMA">      0.05000000</i>
    <i name="KSPACING">      0.50000000</i>
    <i type="logical" name="KGAMMA"> F  </i>
   </separator>
   <separator name="electronic projectors" >
    <i type="logical" name="LREAL"> F  </i>
    <v name="ROPT">      0.00000000      0.00000000</v>
    <i type="int" name="LMAXPAW">  -100</i>
    <i type="int" name="LMAXMIX">     2</i>
    <i type="logical" name="NLSPLINE"> F  </i>
   </separator>
   <separator name="electronic startup" >
    <i type="int" name="ISTART">     1</i>
    <i type="int" name="ICHARG">     2</i>
    <i type="int" name="INIWAV">     1</i>
   </separator>
   <separator name="electronic spin" >
    <i type="int" name="ISPIN">     1</i>
    <i type="logical" name="LNONCOLLINEAR"> F  </i>
    <v name="MAGMOM">      1.00000000      1.00000000      1.00000000      1.00000000      1.00000000      1.00000000</v>
    <i name="NUPDOWN">     -1.00000000</i>
    <i type="logical" name="LSORBIT"> F  </i>
    <v name="SAXIS">      0.00000000      0.00000000      1.00000000</v>
    <i type="logical" name="LSPIRAL"> F  </i>
    <v name="QSPIRAL">      0.00000000      0.00000000      0.00000000</v>
    <i type="logical" name="LZEROZ"> F  </i>
   </separator>
   <separator name="electronic exchange-correlation" >
    <i type="logical" name="LASPH"> F  </i>
    <i type="logical" name="LMETAGGA"> F  </i>
   </separator>
   <separator name="electronic convergence" >
    <i type="int" name="NELM">   100</i>
    <i type="int" name="NELMDL">    -5</i>
    <i type="int" name="NELMIN">     6</i>
    <i name="ENINI">    500.00000000</i>
    <separator name="electronic convergence detail" >
     <i type="logical" name="LDIAG"> T  </i>
     <i type="logical" name="LSUBROT"> F  </i>
     <i name="WEIMIN">      0.00000000</i>
     <i name="EBREAK">      0.00000014</i>
     <i name="DEPER">      0.30000000</i>
     <i type="int" name="NRMM">     4</i>
     <i name="TIME">      0.40000000</i>
    </separator>
   </separator>
   <separator name="electronic mixer" >
    <i name="AMIX">      0.40000000</i>
    <i name="BMIX">      1.00000000</i>
    <i name="AMIN">      0.10000000</i>
    <i name="AMIX_MAG">      1.60000000</i>
    <i name="BMIX_MAG">      1.00000000</i>
    <separator name="electronic mixer details" >
     <i type="int" name="IMIX">     4</i>
     <i type="logical" name="MIXFIRST"> F  </i>
     <i type="int" name="MAXMIX">   -45</i>
     <i name="WC">    100.00000000</i>
     <i type="int" name="INIMIX">     1</i>
     <i type="int" name="MIXPRE">     1</i>
     <i type="int" name="MREMOVE">     5</i>
    </separator>
   </separator>
   <separator name="electronic dipolcorrection" >
    <i type="logical" name="LDIPOL"> F  </i>
    <i type="logical" name="LMONO"> F  </i>
    <i type="int" name="IDIPOL">     0</i>
    <i name="EPSILON">      1.00000000</i>
    <v name="DIPOL">   -100.00000000   -100.00000000   -100.00000000</v>
    <i name="EFIELD">      0.00000000</i>
   </separator>
  </separator>
  <separator name="grids" >
   <i type="int" name="NGX">    18</i>
   <i type="int" name="NGY">    18</i>
   <i type="int" name="NGZ">   140</i>
   <i type="int" name="NGXF">    36</i>
   <i type="int" name="NGYF">    36</i>
   <i type="int" name="NGZF">   280</i>
   <i type="logical" name="ADDGRID"> F  </i>
  </separator>
  <separator name="ionic" >
   <i type="int" name="NSW">     0</i>
   <i type="int" name="IBRION">    -1</i>
   <i type="int" name="ISIF">     2</i>
   <i name="PSTRESS">      0.00000000</i>
   <i name="EDIFFG">     -0.01000000</i>
   <i type="int" name="NFREE">     1</i>
   <i name="POTIM">      0.25000000</i>
   <i name="SMASS">     -3.00000000</i>
   <i name="SCALEE">      1.00000000</i>
  </separator>
  <separator name="ionic md" >
   <i name="TEBEG">      0.00010000</i>
   <i name="TEEND">      0.00010000</i>
   <i type="int" name="NBLOCK">     1</i>
   <i type="int" name="KBLOCK">     1</i>
   <i type="int" name="NPACO">   256</i>
   <i name="APACO">     16.00000000</i>
  </separator>
  <separator name="symmetry" >
   <i type="int" name="ISYM">     2</i>
   <i name="SYMPREC">      0.00001000</i>
  </separator>
  <separator name="dos" >
   <i type="logical" name="LORBIT"> F  </i>
   <v name="RWIGS">     -1.00000000     -1.00000000</v>
   <i type="int" name="NEDOS">   301</i>
   <i name="EMIN">     10.00000000</i>
   <i name="EMAX">    -10.00000000</i>
   <i name="EFERMI">      0.00000000</i>
  </separator>
  <separator name="writing" >
   <i type="int" name="NWRITE">     2</i>
   <i type="logical" name="LWAVE"> T  </i>
   <i type="logical" name="LCHARG"> T  </i>
   <i type="logical" name="LPARD"> F  </i>
   <i type="logical" name="LVTOT"> F  </i>
   <i type="logical" name="LVHAR"> F  </i>
   <i type="logical" name="LELF"> T  </i>
   <i type="logical" name="LOPTICS"> F  </i>
   <v name="STM">      0.00000000      0.00000000      0.00000000      0.00000000      0.00000000      0.00000000      0.00000000</v>
  </separator>
  <separator name="performance" >
   <i type="int" name="NPAR">     6</i>
   <i type="int" name="NSIM">     4</i>
   <i type="int" name="NBLK">    -1</i>
   <i type="logical" name="LPLANE"> T  </i>
   <i type="logical" name="LSCALAPACK"> T  </i>
   <i type="logical" name="LSCAAWARE"> F  </i>
   <i type="logical" name="LSCALU"> F  </i>
   <i type="logical" name="LASYNC"> F  </i>
   <i type="logical" name="LORBITALREAL"> F  </i>
  </separator>
  <separator name="miscellaneous" >
   <i type="int" name="IDIOT">     3</i>
   <i type="logical" name="LMUSIC"> F  </i>
   <v name="POMASS">     12.01100000     14.00100000</v>
   <v name="DARWINR">      0.00000000      0.00000000</v>
   <v name="DARWINV">      1.00000000      1.00000000</v>
   <i type="logical" name="LCORR"> T  </i>
  </separator>
  <i type="logical" name="GGA_COMPAT"> T  </i>
  <i type="logical" name="LBERRY"> F  </i>
  <i type="int" name="ICORELEVEL">     0</i>
  <i type="logical" name="LDAU"> F  </i>
  <i type="int" name="I_CONSTRAINED_M">     0</i>
  <separator name="electronic exchange-correlation" >
   <i type="string" name="GGA">--</i>
   <i type="int" name="VOSKOWN">     0</i>
   <i type="logical" name="LHFCALC"> F  </i>
   <i type="string" name="PRECFOCK"></i>
   <i type="logical" name="LSYMGRAD"> F  </i>
   <i type="logical" name="LHFONE"> F  </i>
   <i type="logical" name="LRHFCALC"> F  </i>
   <i type="logical" name="LTHOMAS"> F  </i>
   <i type="logical" name="LMODELHF"> F  </i>
   <i name="ENCUT4O">     -1.00000000</i>
   <i type="int" name="EXXOEP">     0</i>
   <i type="int" name="FOURORBIT">     0</i>
   <i name="AEXX">      0.00000000</i>
   <i name="HFALPHA">      0.00000000</i>
   <i name="MCALPHA">      0.00000000</i>
   <i name="ALDAX">      1.00000000</i>
   <i name="AGGAX">      1.00000000</i>
   <i name="ALDAC">      1.00000000</i>
   <i name="AGGAC">      1.00000000</i>
   <i type="int" name="NKREDX">     1</i>
   <i type="int" name="NKREDY">     1</i>
   <i type="int" name="NKREDZ">     1</i>
   <i type="logical" name="SHIFTRED"> F  </i>
   <i type="logical" name="ODDONLY"> F  </i>
   <i type="logical" name="EVENONLY"> F  </i>
   <i type="int" name="LMAXFOCK">     0</i>
   <i type="int" name="NMAXFOCKAE">     0</i>
   <i type="logical" name="LFOCKAEDFT"> F  </i>
   <i name="HFSCREEN">      0.00000000</i>
   <i name="HFSCREENC">      0.00000000</i>
   <i type="int" name="NBANDSGWLOW">     0</i>
  </separator>
  <separator name="vdW DFT" >
   <i type="logical" name="LUSE_VDW"> F  </i>
   <i name="Zab_VDW">     -0.84910000</i>
   <i name="PARAM1">      0.12340000</i>
   <i name="PARAM2">      1.00000000</i>
   <i name="PARAM3">      0.00000000</i>
  </separator>
  <separator name="model GW" >
   <i type="int" name="MODEL_GW">     0</i>
   <i name="MODEL_EPS0">     26.51316688</i>
   <i name="MODEL_ALPHA">      1.00000000</i>
  </separator>
  <separator name="linear response parameters" >
   <i type="logical" name="LEPSILON"> F  </i>
   <i type="logical" name="LRPA"> F  </i>
   <i type="logical" name="LNABLA"> F  </i>
   <i type="logical" name="LVEL"> F  </i>
   <i type="int" name="KINTER">     0</i>
   <i name="CSHIFT">      0.10000000</i>
   <i name="OMEGAMAX">     -1.00000000</i>
   <i name="DEG_THRESHOLD">      0.00200000</i>
  </separator>
  <separator name="orbital magnetization" >
   <i type="logical" name="NUCIND"> F  </i>
   <v name="MAGPOS">      0.00000000      0.00000000      0.00000000</v>
   <i type="logical" name="LNICSALL"> T  </i>
   <i type="logical" name="ORBITALMAG"> F  </i>
   <i type="logical" name="LMAGBLOCH"> F  </i>
   <i type="logical" name="LCHIMAG"> F  </i>
   <i type="logical" name="LGAUGE"> T  </i>
   <i type="int" name="MAGATOM">     0</i>
   <v name="MAGDIPOL">      0.00000000      0.00000000      0.00000000</v>
   <v name="AVECCONST">      0.00000000      0.00000000      0.00000000</v>
  </separator>
  <separator name="response functions" >
   <i type="logical" name="LADDER"> F  </i>
   <i type="logical" name="LFXC"> F  </i>
   <i type="logical" name="LHARTREE"> T  </i>
   <i type="int" name="IBSE">     0</i>
   <v type="int" name="KPOINT">    -1     0     0     0</v>
   <i type="logical" name="LTCTE"> F  </i>
   <i type="logical" name="LTETE"> F  </i>
   <i type="logical" name="LTRIPLET"> F  </i>
   <i type="logical" name="LFXCEPS"> F  </i>
   <i type="logical" name="LFXHEG"> F  </i>
   <i type="int" name="NATURALO">     0</i>
   <i type="logical" name="L2ORDER"> F  </i>
   <i type="logical" name="LUSEW"> F  </i>
   <i name="ENCUTGW">     -2.00000000</i>
   <i name="ENCUTGWSOFT">     -2.00000000</i>
   <i name="ENCUTLF">     -1.00000000</i>
   <i type="int" name="LMAXMP2">    -1</i>
   <i name="SCISSOR">      0.00000000</i>
   <i type="int" name="NOMEGA">     0</i>
   <i type="int" name="NOMEGAR">     0</i>
   <i type="int" name="NBANDSGW">    -1</i>
   <i type="int" name="NBANDSO">    -1</i>
   <i type="int" name="NBANDSV">    -1</i>
   <i type="int" name="NELM">   100</i>
   <i type="int" name="NELMHF">     1</i>
   <i type="int" name="DIM">     3</i>
   <i type="int" name="ANTIRES">     0</i>
   <i name="OMEGAMAX">    -30.00000000</i>
   <i name="OMEGAMIN">    -30.00000000</i>
   <i name="OMEGATL">   -200.00000000</i>
   <i type="int" name="OMEGAGRID">     0</i>
   <i name="CSHIFT">     -0.10000000</i>
   <i type="logical" name="SELFENERGY"> F  </i>
   <i type="logical" name="LSPECTRAL"> F  </i>
   <i type="logical" name="LSPECTRALGW"> F  </i>
   <i type="logical" name="LSINGLES"> F  </i>
   <i type="logical" name="LFERMIGW"> F  </i>
   <i type="logical" name="ODDONLYGW"> F  </i>
   <i type="logical" name="EVENONLYGW"> F  </i>
   <i type="int" name="NKREDLFX">     1</i>
   <i type="int" name="NKREDLFY">     1</i>
   <i type="int" name="NKREDLFZ">     1</i>
   <i type="int" name="MAXMEM">  1800</i>
   <i type="int" name="TELESCOPE">     0</i>
   <i type="int" name="TAUPAR">     1</i>
   <i type="int" name="OMEGAPAR">    -1</i>
   <i name="LAMBDA">      1.00000000</i>
  </separator>
  <separator name="External order field" >
   <i name="OFIELD_KAPPA">      0.00000000</i>
   <v name="OFIELD_K">      0.00000000      0.00000000      0.00000000</v>
   <i name="OFIELD_Q6_NEAR">      0.00000000</i>
   <i name="OFIELD_Q6_FAR">      0.00000000</i>
   <i name="OFIELD_A">      0.00000000</i>
  </separator>
 </parameters>
 <atominfo>
  <atoms>       6 </atoms>
  <types>       2 </types>
  <array name="atoms" >
   <dimension dim="1">ion</dimension>
   <field type="string">element</field>
   <field type="int">atomtype</field>
   <set>
    <rc><c>C </c><c>   1</c></rc>
    <rc><c>C </c><c>   1</c></rc>
    <rc><c>N </c><c>   2</c></rc>
    <rc><c>N </c><c>   2</c></rc>
    <rc><c>N </c><c>   2</c></rc>
    <rc><c>N </c><c>   2</c></rc>
   </set>
  </array>
  <array name="atomtypes" >
   <dimension dim="1">type</dimension>
   <field type="int">atomspertype</field>
   <field type="string">element</field>
   <field>mass</field>
   <field>valence</field>
   <field type="string">pseudopotential</field>
   <set>
    <rc><c>   2</c><c>C </c><c>     12.01100000</c><c>      4.00000000</c><c>  PAW_PBE C 08Apr2002                   </c></rc>
    <rc><c>   4</c><c>N </c><c>     14.00100000</c><c>      5.00000000</c><c>  PAW_PBE N 08Apr2002                   </c></rc>
   </set>
  </array>
 </atominfo>
 <structure name="initialpos" >
  <crystal>
   <varray name="basis" >
    <v>       3.31500000       0.00000000       0.00000000 </v>
    <v>       0.00000000       3.31500000       0.00000000 </v>
    <v>       0.00000000       0.00000000      24.12651200 </v>
   </varray>
   <i name="volume">    265.13166883 </i>
   <varray name="rec_basis" >
    <v>       0.30165913       0.00000000       0.00000000 </v>
    <v>       0.00000000       0.30165913       0.00000000 </v>
    <v>       0.00000000       0.00000000       0.04144818 </v>
   </varray>
  </crystal>
  <varray name="positions" >
   <v>       0.00000000       0.00000000       0.50000000 </v>
   <v>       0.50000000       0.50000000       0.50000000 </v>
   <v>       0.34555363       0.15444637       0.53165919 </v>
   <v>       0.15444637       0.65444637       0.46834081 </v>
   <v>       0.65444637       0.84555363       0.53165919 </v>
   <v>       0.84555363       0.34555363       0.46834081 </v>
  </varray>
 </structure>
 <calculation>
  <scstep>
   <time name="dav">    0.44    0.44</time>
   <time name="total">    0.45    0.45</time>
   <energy>
    <i name="alphaZ">     13.44073302 </i>
    <i name="ewald">   9193.65692876 </i>
    <i name="hartreedc"> -10269.07522591 </i>
    <i name="XCdc">    107.82048975 </i>
    <i name="pawpsdc">   1036.77501921 </i>
    <i name="pawaedc">  -1042.67776719 </i>
    <i name="eentropy">     -0.00000000 </i>
    <i name="bandstr">   -442.40065751 </i>
    <i name="atom">   1352.43624119 </i>
    <i name="e_fr_energy">    -50.02423868 </i>
    <i name="e_wo_entrp">    -50.02423868 </i>
    <i name="e_0_energy">    -50.02423868 </i>
   </energy>
  </scstep>
  <scstep>
   <time name="dav">    0.39    0.39</time>
   <time name="total">    0.39    0.39</time>
   <energy>
    <i name="e_fr_energy">    -50.04329947 </i>
    <i name="e_wo_entrp">    -50.04329947 </i>
    <i name="e_0_energy">    -50.04329947 </i>
   </energy>
  </scstep>
  <scstep>
   <time name="dav">    0.42    0.42</time>
   <time name="total">    0.42    0.42</time>
   <energy>
    <i name="e_fr_energy">    -50.04362289 </i>
    <i name="e_wo_entrp">    -50.04362289 </i>
    <i name="e_0_energy">    -50.04362289 </i>
   </energy>
  </scstep>
  <scstep>
   <time name="dav">    0.40    0.40</time>
   <time name="total">    0.41    0.41</time>
   <energy>
    <i name="e_fr_energy">    -50.04363219 </i>
    <i name="e_wo_entrp">    -50.04363219 </i>
    <i name="e_0_energy">    -50.04363219 </i>
   </energy>
  </scstep>
  <scstep>
   <time name="dav">    0.33    0.33</time>
   <time name="total">    0.35    0.35</time>
   <energy>
    <i name="e_fr_energy">    -50.04363239 </i>
    <i name="e_wo_entrp">    -50.04363239 </i>
    <i name="e_0_energy">    -50.04363239 </i>
   </energy>
  </scstep>
  <scstep>
   <time name="dav">    0.38    0.38</time>
   <time name="total">    0.41    0.41</time>
   <energy>
    <i name="e_fr_energy">    -48.35364627 </i>
    <i name="e_wo_entrp">    -48.35364627 </i>
    <i name="e_0_energy">    -48.35364627 </i>
   </energy>
  </scstep>
  <scstep>
   <time name="dav">    0.40    0.40</time>
   <time name="total">    0.42    0.42</time>
   <energy>
    <i name="e_fr_energy">    -48.08140576 </i>
    <i name="e_wo_entrp">    -48.08140576 </i>
    <i name="e_0_energy">    -48.08140576 </i>
   </energy>
  </scstep>
  <scstep>
   <time name="dav">    0.39    0.39</time>
   <time name="total">    0.41    0.41</time>
   <energy>
    <i name="e_fr_energy">    -48.08302037 </i>
    <i name="e_wo_entrp">    -48.08302037 </i>
    <i name="e_0_energy">    -48.08302037 </i>
   </energy>
  </scstep>
  <scstep>
   <time name="dav">    0.37    0.37</time>
   <time name="total">    0.39    0.40</time>
   <energy>
    <i name="e_fr_energy">    -48.08168917 </i>
    <i name="e_wo_entrp">    -48.08168917 </i>
    <i name="e_0_energy">    -48.08168917 </i>
   </energy>
  </scstep>
  <scstep>
   <time name="dav">    0.38    0.38</time>
   <time name="total">    0.41    0.41</time>
   <energy>
    <i name="e_fr_energy">    -48.08187279 </i>
    <i name="e_wo_entrp">    -48.08187279 </i>
    <i name="e_0_energy">    -48.08187279 </i>
   </energy>
  </scstep>
  <scstep>
   <time name="dav">    0.37    0.37</time>
   <time name="total">    0.39    0.39</time>
   <energy>
    <i name="e_fr_energy">    -48.08196766 </i>
    <i name="e_wo_entrp">    -48.08196766 </i>
    <i name="e_0_energy">    -48.08196766 </i>
   </energy>
  </scstep>
  <scstep>
   <time name="dav">    0.31    0.31</time>
   <time name="total">    0.34    0.34</time>
   <energy>
    <i name="e_fr_energy">    -48.08205737 </i>
    <i name="e_wo_entrp">    -48.08205737 </i>
    <i name="e_0_energy">    -48.08205737 </i>
   </energy>
  </scstep>
  <scstep>
   <time name="dav">    0.31    0.31</time>
   <time name="total">    0.34    0.34</time>
   <energy>
    <i name="e_fr_energy">    -48.08208810 </i>
    <i name="e_wo_entrp">    -48.08208810 </i>
    <i name="e_0_energy">    -48.08208810 </i>
   </energy>
  </scstep>
  <scstep>
   <time name="dav">    0.30    0.30</time>
   <time name="total">    0.33    0.33</time>
   <energy>
    <i name="e_fr_energy">    -48.08215282 </i>
    <i name="e_wo_entrp">    -48.08215282 </i>
    <i name="e_0_energy">    -48.08215282 </i>
   </energy>
  </scstep>
  <scstep>
   <time name="dav">    0.32    0.32</time>
   <time name="total">    0.34    0.34</time>
   <energy>
    <i name="e_fr_energy">    -48.08216789 </i>
    <i name="e_wo_entrp">    -48.08216789 </i>
    <i name="e_0_energy">    -48.08216789 </i>
   </energy>
  </scstep>
  <scstep>
   <time name="dav">    0.33    0.33</time>
   <time name="total">    0.35    0.35</time>
   <energy>
    <i name="e_fr_energy">    -48.08218280 </i>
    <i name="e_wo_entrp">    -48.08218280 </i>
    <i name="e_0_energy">    -48.08218280 </i>
   </energy>
  </scstep>
  <scstep>
   <time name="dav">    0.31    0.31</time>
   <time name="total">    0.32    0.32</time>
   <energy>
    <i name="alphaZ">     13.44073302 </i>
    <i name="ewald">   9193.65692876 </i>
    <i name="hartreedc"> -10302.24488930 </i>
    <i name="XCdc">    110.48740332 </i>
    <i name="pawpsdc">   2756.68998170 </i>
    <i name="pawaedc">  -2763.54836550 </i>
    <i name="eentropy">     -0.00000000 </i>
    <i name="bandstr">   -409.00021771 </i>
    <i name="atom">   1352.43624119 </i>
    <i name="e_fr_energy">    -48.08218452 </i>
    <i name="e_wo_entrp">    -48.08218452 </i>
    <i name="e_0_energy">    -48.08218452 </i>
   </energy>
  </scstep>
  <structure>
   <crystal>
    <varray name="basis" >
     <v>       3.31500000       0.00000000       0.00000000 </v>
     <v>       0.00000000       3.31500000       0.00000000 </v>
     <v>       0.00000000       0.00000000      24.12651200 </v>
    </varray>
    <i name="volume">    265.13166883 </i>
    <varray name="rec_basis" >
     <v>       0.30165913       0.00000000       0.00000000 </v>
     <v>       0.00000000       0.30165913       0.00000000 </v>
     <v>       0.00000000       0.00000000       0.04144818 </v>
    </varray>
   </crystal>
   <varray name="positions" >
    <v>       0.00000000       0.00000000       0.50000000 </v>
    <v>       0.50000000       0.50000000       0.50000000 </v>
    <v>       0.34555363       0.15444637       0.53165919 </v>
    <v>       0.15444637       0.65444637       0.46834081 </v>
    <v>       0.65444637       0.84555363       0.53165919 </v>
    <v>       0.84555363       0.34555363       0.46834081 </v>
   </varray>
  </structure>
  <varray name="forces" >
   <v>      -0.00000000       0.00000000       0.00000000 </v>
   <v>       0.00000000       0.00000000       0.00000000 </v>
   <v>       0.00365330      -0.00365330       0.00012945 </v>
   <v>      -0.00365330      -0.00365330      -0.00012945 </v>
   <v>      -0.00365330       0.00365330       0.00012945 </v>
   <v>       0.00365330       0.00365330      -0.00012945 </v>
  </varray>
  <varray name="stress" >
   <v>      -1.09890759       0.00000000       0.00000000 </v>
   <v>       0.00000000      -1.09890759       0.00000000 </v>
   <v>       0.00000000       0.00000000      -0.79122151 </v>
  </varray>
  <energy>
   <i name="e_fr_energy">    -48.08218452 </i>
   <i name="e_wo_entrp">    -48.08218452 </i>
   <i name="e_0_energy">     -0.00000000 </i>
  </energy>
  <time name="totalsc">    7.27    7.32</time>
  <eigenvalues>
   <array>
    <dimension dim="1">band</dimension>
    <dimension dim="2">kpoint</dimension>
    <dimension dim="3">spin</dimension>
    <field>eigene</field>
    <field>occ</field>
    <set>
     <set comment="spin 1">
      <set comment="kpoint 1">
       <r>  -29.2197    1.0000 </r>
       <r>  -23.8490    1.0000 </r>
       <r>  -19.9095    1.0000 </r>
       <r>  -19.9095    1.0000 </r>
       <r>  -17.8352    1.0000 </r>
       <r>  -14.9703    1.0000 </r>
       <r>  -13.6689    1.0000 </r>
       <r>  -12.4279    1.0000 </r>
       <r>  -12.4279    1.0000 </r>
       <r>  -11.9544    1.0000 </r>
       <r>   -8.9739    1.0000 </r>
       <r>   -8.5400    1.0000 </r>
       <r>   -6.1538    1.0000 </r>
       <r>   -6.1538    1.0000 </r>
       <r>   -0.2075    0.0000 </r>
       <r>    0.0060    0.0000 </r>
       <r>    0.0060    0.0000 </r>
       <r>    1.6564    0.0000 </r>
      </set>
      <set comment="kpoint 2">
       <r>  -29.1928    1.0000 </r>
       <r>  -23.8735    1.0000 </r>
       <r>  -20.0809    1.0000 </r>
       <r>  -19.8958    1.0000 </r>
       <r>  -17.6428    1.0000 </r>
       <r>  -15.0573    1.0000 </r>
       <r>  -13.6253    1.0000 </r>
       <r>  -12.5131    1.0000 </r>
       <r>  -12.4869    1.0000 </r>
       <r>  -11.8431    1.0000 </r>
       <r>   -8.9392    1.0000 </r>
       <r>   -8.5173    1.0000 </r>
       <r>   -6.1784    1.0000 </r>
       <r>   -6.1285    1.0000 </r>
       <r>   -0.1631    0.0000 </r>
       <r>   -0.0119    0.0000 </r>
       <r>    0.0658    0.0000 </r>
       <r>    1.7001    0.0000 </r>
      </set>
      <set comment="kpoint 3">
       <r>  -29.1123    1.0000 </r>
       <r>  -23.9560    1.0000 </r>
       <r>  -20.4410    1.0000 </r>
       <r>  -19.8569    1.0000 </r>
       <r>  -17.2168    1.0000 </r>
       <r>  -15.2999    1.0000 </r>
       <r>  -13.5024    1.0000 </r>
       <r>  -12.6411    1.0000 </r>
       <r>  -12.6254    1.0000 </r>
       <r>  -11.6704    1.0000 </r>
       <r>   -8.8377    1.0000 </r>
       <r>   -8.4600    1.0000 </r>
       <r>   -6.2412    1.0000 </r>
       <r>   -6.0513    1.0000 </r>
       <r>   -0.0595    0.0000 </r>
       <r>   -0.0589    0.0000 </r>
       <r>    0.2649    0.0000 </r>
       <r>    1.8281    0.0000 </r>
      </set>
      <set comment="kpoint 4">
       <r>  -28.9786    1.0000 </r>
       <r>  -24.1202    1.0000 </r>
       <r>  -20.7909    1.0000 </r>
       <r>  -19.7999    1.0000 </r>
       <r>  -16.7513    1.0000 </r>
       <r>  -15.6476    1.0000 </r>
       <r>  -13.3615    1.0000 </r>
       <r>  -12.7935    1.0000 </r>
       <r>  -12.6783    1.0000 </r>
       <r>  -11.5623    1.0000 </r>
       <r>   -8.6851    1.0000 </r>
       <r>   -8.3958    1.0000 </r>
       <r>   -6.3114    1.0000 </r>
       <r>   -5.9220    1.0000 </r>
       <r>   -0.1178    0.0000 </r>
       <r>    0.0827    0.0000 </r>
       <r>    0.5908    0.0000 </r>
       <r>    2.0332    0.0000 </r>
      </set>
      <set comment="kpoint 5">
       <r>  -28.7923    1.0000 </r>
       <r>  -24.3883    1.0000 </r>
       <r>  -21.0287    1.0000 </r>
       <r>  -19.7385    1.0000 </r>
       <r>  -16.3505    1.0000 </r>
       <r>  -16.0343    1.0000 </r>
       <r>  -13.4139    1.0000 </r>
       <r>  -12.6934    1.0000 </r>
       <r>  -12.6798    1.0000 </r>
       <r>  -11.5395    1.0000 </r>
       <r>   -8.5169    1.0000 </r>
       <r>   -8.3581    1.0000 </r>
       <r>   -6.3447    1.0000 </r>
       <r>   -5.7474    1.0000 </r>
       <r>   -0.1681    0.0000 </r>
       <r>    0.2744    0.0000 </r>
       <r>    0.9685    0.0000 </r>
       <r>    2.3097    0.0000 </r>
      </set>
      <set comment="kpoint 6">
       <r>  -28.5544    1.0000 </r>
       <r>  -24.7597    1.0000 </r>
       <r>  -21.1214    1.0000 </r>
       <r>  -19.6957    1.0000 </r>
       <r>  -16.3952    1.0000 </r>
       <r>  -16.0766    1.0000 </r>
       <r>  -13.6024    1.0000 </r>
       <r>  -12.6654    1.0000 </r>
       <r>  -12.3677    1.0000 </r>
       <r>  -11.5723    1.0000 </r>
       <r>   -8.3742    1.0000 </r>
       <r>   -8.3681    1.0000 </r>
       <r>   -6.3002    1.0000 </r>
       <r>   -5.5498    1.0000 </r>
       <r>   -0.1894    0.0000 </r>
       <r>    0.5249    0.0000 </r>
       <r>    1.2729    0.0000 </r>
       <r>    2.6540    0.0000 </r>
      </set>
      <set comment="kpoint 7">
       <r>  -28.2665    1.0000 </r>
       <r>  -25.2067    1.0000 </r>
       <r>  -21.0814    1.0000 </r>
       <r>  -19.7032    1.0000 </r>
       <r>  -16.6704    1.0000 </r>
       <r>  -15.9727    1.0000 </r>
       <r>  -13.7257    1.0000 </r>
       <r>  -12.6828    1.0000 </r>
       <r>  -12.0034    1.0000 </r>
       <r>  -11.6062    1.0000 </r>
       <r>   -8.4165    1.0000 </r>
       <r>   -8.2852    1.0000 </r>
       <r>   -6.1637    1.0000 </r>
       <r>   -5.3680    1.0000 </r>
       <r>   -0.1647    0.0000 </r>
       <r>    0.8373    0.0000 </r>
       <r>    1.3486    0.0000 </r>
       <r>    3.0626    0.0000 </r>
      </set>
      <set comment="kpoint 8">
       <r>  -27.9305    1.0000 </r>
       <r>  -25.6929    1.0000 </r>
       <r>  -20.9394    1.0000 </r>
       <r>  -19.7914    1.0000 </r>
       <r>  -16.8131    1.0000 </r>
       <r>  -16.0440    1.0000 </r>
       <r>  -13.7139    1.0000 </r>
       <r>  -12.7740    1.0000 </r>
       <r>  -11.6942    1.0000 </r>
       <r>  -11.5927    1.0000 </r>
       <r>   -8.4649    1.0000 </r>
       <r>   -8.2588    1.0000 </r>
       <r>   -5.9535    1.0000 </r>
       <r>   -5.2464    1.0000 </r>
       <r>   -0.0815    0.0000 </r>
       <r>    1.1403    0.0000 </r>
       <r>    1.2460    0.0000 </r>
       <r>    3.4852    0.0000 </r>
      </set>
      <set comment="kpoint 9">
       <r>  -27.5495    1.0000 </r>
       <r>  -26.1879    1.0000 </r>
       <r>  -20.7268    1.0000 </r>
       <r>  -19.9676    1.0000 </r>
       <r>  -16.8081    1.0000 </r>
       <r>  -16.2358    1.0000 </r>
       <r>  -13.5828    1.0000 </r>
       <r>  -12.9422    1.0000 </r>
       <r>  -11.5289    1.0000 </r>
       <r>  -11.4971    1.0000 </r>
       <r>   -8.4733    1.0000 </r>
       <r>   -8.2886    1.0000 </r>
       <r>   -5.7083    1.0000 </r>
       <r>   -5.2197    1.0000 </r>
       <r>    0.0669    0.0000 </r>
       <r>    0.8639    0.0000 </r>
       <r>    1.6695    0.0000 </r>
       <r>    3.3855    0.0000 </r>
      </set>
      <set comment="kpoint 10">
       <r>  -27.1276    1.0000 </r>
       <r>  -26.6707    1.0000 </r>
       <r>  -20.4726    1.0000 </r>
       <r>  -20.2075    1.0000 </r>
       <r>  -16.6785    1.0000 </r>
       <r>  -16.4695    1.0000 </r>
       <r>  -13.3826    1.0000 </r>
       <r>  -13.1571    1.0000 </r>
       <r>  -11.4552    1.0000 </r>
       <r>  -11.4271    1.0000 </r>
       <r>   -8.4296    1.0000 </r>
       <r>   -8.3559    1.0000 </r>
       <r>   -5.4752    1.0000 </r>
       <r>   -5.3006    1.0000 </r>
       <r>    0.2808    0.0000 </r>
       <r>    0.5535    0.0000 </r>
       <r>    2.1825    0.0000 </r>
       <r>    2.7609    0.0000 </r>
      </set>
      <set comment="kpoint 11">
       <r>  -29.1659    1.0000 </r>
       <r>  -23.8958    1.0000 </r>
       <r>  -20.2176    1.0000 </r>
       <r>  -19.9002    1.0000 </r>
       <r>  -17.4682    1.0000 </r>
       <r>  -15.1442    1.0000 </r>
       <r>  -13.5867    1.0000 </r>
       <r>  -12.6360    1.0000 </r>
       <r>  -12.4720    1.0000 </r>
       <r>  -11.7566    1.0000 </r>
       <r>   -8.9097    1.0000 </r>
       <r>   -8.4978    1.0000 </r>
       <r>   -6.2289    1.0000 </r>
       <r>   -6.0741    1.0000 </r>
       <r>   -0.1480    0.0000 </r>
       <r>    0.0612    0.0000 </r>
       <r>    0.0640    0.0000 </r>
       <r>    1.7432    0.0000 </r>
      </set>
      <set comment="kpoint 12">
       <r>  -29.0855    1.0000 </r>
       <r>  -23.9720    1.0000 </r>
       <r>  -20.5467    1.0000 </r>
       <r>  -19.8720    1.0000 </r>
       <r>  -17.0674    1.0000 </r>
       <r>  -15.3862    1.0000 </r>
       <r>  -13.4793    1.0000 </r>
       <r>  -12.7947    1.0000 </r>
       <r>  -12.5345    1.0000 </r>
       <r>  -11.5974    1.0000 </r>
       <r>   -8.8202    1.0000 </r>
       <r>   -8.4509    1.0000 </r>
       <r>   -6.2971    1.0000 </r>
       <r>   -5.9831    1.0000 </r>
       <r>   -0.1267    0.0000 </r>
       <r>    0.0764    0.0000 </r>
       <r>    0.2834    0.0000 </r>
       <r>    1.8696    0.0000 </r>
      </set>
      <set comment="kpoint 13">
       <r>  -28.9518    1.0000 </r>
       <r>  -24.1266    1.0000 </r>
       <r>  -20.8846    1.0000 </r>
       <r>  -19.8199    1.0000 </r>
       <r>  -16.6189    1.0000 </r>
       <r>  -15.7317    1.0000 </r>
       <r>  -13.3633    1.0000 </r>
       <r>  -12.9249    1.0000 </r>
       <r>  -12.5661    1.0000 </r>
       <r>  -11.4874    1.0000 </r>
       <r>   -8.6796    1.0000 </r>
       <r>   -8.4026    1.0000 </r>
       <r>   -6.3511    1.0000 </r>
       <r>   -5.8588    1.0000 </r>
       <r>   -0.1366    0.0000 </r>
       <r>    0.1631    0.0000 </r>
       <r>    0.6176    0.0000 </r>
       <r>    2.0732    0.0000 </r>
      </set>
      <set comment="kpoint 14">
       <r>  -28.7656    1.0000 </r>
       <r>  -24.3843    1.0000 </r>
       <r>  -21.1200    1.0000 </r>
       <r>  -19.7634    1.0000 </r>
       <r>  -16.2394    1.0000 </r>
       <r>  -16.1090    1.0000 </r>
       <r>  -13.4247    1.0000 </r>
       <r>  -12.8806    1.0000 </r>
       <r>  -12.4822    1.0000 </r>
       <r>  -11.4634    1.0000 </r>
       <r>   -8.5313    1.0000 </r>
       <r>   -8.3673    1.0000 </r>
       <r>   -6.3617    1.0000 </r>
       <r>   -5.6980    1.0000 </r>
       <r>   -0.1615    0.0000 </r>
       <r>    0.3318    0.0000 </r>
       <r>    1.0002    0.0000 </r>
       <r>    2.3479    0.0000 </r>
      </set>
      <set comment="kpoint 15">
       <r>  -28.5279    1.0000 </r>
       <r>  -24.7473    1.0000 </r>
       <r>  -21.2128    1.0000 </r>
       <r>  -19.7273    1.0000 </r>
       <r>  -16.4726    1.0000 </r>
       <r>  -15.9801    1.0000 </r>
       <r>  -13.5878    1.0000 </r>
       <r>  -12.7575    1.0000 </r>
       <r>  -12.2568    1.0000 </r>
       <r>  -11.5043    1.0000 </r>
       <r>   -8.4791    1.0000 </r>
       <r>   -8.2943    1.0000 </r>
       <r>   -6.3017    1.0000 </r>
       <r>   -5.5155    1.0000 </r>
       <r>   -0.1672    0.0000 </r>
       <r>    0.5712    0.0000 </r>
       <r>    1.3148    0.0000 </r>
       <r>    2.6902    0.0000 </r>
      </set>
      <set comment="kpoint 16">
       <r>  -28.2402    1.0000 </r>
       <r>  -25.1888    1.0000 </r>
       <r>  -21.1723    1.0000 </r>
       <r>  -19.7445    1.0000 </r>
       <r>  -16.7375    1.0000 </r>
       <r>  -15.9117    1.0000 </r>
       <r>  -13.6713    1.0000 </r>
       <r>  -12.6938    1.0000 </r>
       <r>  -11.9676    1.0000 </r>
       <r>  -11.5545    1.0000 </r>
       <r>   -8.5120    1.0000 </r>
       <r>   -8.2117    1.0000 </r>
       <r>   -6.1606    1.0000 </r>
       <r>   -5.3457    1.0000 </r>
       <r>   -0.1311    0.0000 </r>
       <r>    0.8767    0.0000 </r>
       <r>    1.4039    0.0000 </r>
       <r>    3.0819    0.0000 </r>
      </set>
      <set comment="kpoint 17">
       <r>  -27.9045    1.0000 </r>
       <r>  -25.6717    1.0000 </r>
       <r>  -21.0285    1.0000 </r>
       <r>  -19.8447    1.0000 </r>
       <r>  -16.8677    1.0000 </r>
       <r>  -16.0185    1.0000 </r>
       <r>  -13.6224    1.0000 </r>
       <r>  -12.7202    1.0000 </r>
       <r>  -11.7407    1.0000 </r>
       <r>  -11.5398    1.0000 </r>
       <r>   -8.5375    1.0000 </r>
       <r>   -8.1889    1.0000 </r>
       <r>   -5.9511    1.0000 </r>
       <r>   -5.2322    1.0000 </r>
       <r>   -0.0394    0.0000 </r>
       <r>    1.1869    0.0000 </r>
       <r>    1.2949    0.0000 </r>
       <r>    3.4903    0.0000 </r>
      </set>
      <set comment="kpoint 18">
       <r>  -27.5238    1.0000 </r>
       <r>  -26.1647    1.0000 </r>
       <r>  -20.8127    1.0000 </r>
       <r>  -20.0327    1.0000 </r>
       <r>  -16.8495    1.0000 </r>
       <r>  -16.2357    1.0000 </r>
       <r>  -13.4689    1.0000 </r>
       <r>  -12.8460    1.0000 </r>
       <r>  -11.6139    1.0000 </r>
       <r>  -11.4659    1.0000 </r>
       <r>   -8.5115    1.0000 </r>
       <r>   -8.2322    1.0000 </r>
       <r>   -5.7063    1.0000 </r>
       <r>   -5.2104    1.0000 </r>
       <r>    0.1151    0.0000 </r>
       <r>    0.9228    0.0000 </r>
       <r>    1.7005    0.0000 </r>
       <r>    3.3928    0.0000 </r>
      </set>
      <set comment="kpoint 19">
       <r>  -27.1024    1.0000 </r>
       <r>  -26.6463    1.0000 </r>
       <r>  -20.5539    1.0000 </r>
       <r>  -20.2820    1.0000 </r>
       <r>  -16.7076    1.0000 </r>
       <r>  -16.4860    1.0000 </r>
       <r>  -13.2610    1.0000 </r>
       <r>  -13.0406    1.0000 </r>
       <r>  -11.5147    1.0000 </r>
       <r>  -11.4523    1.0000 </r>
       <r>   -8.4300    1.0000 </r>
       <r>   -8.3234    1.0000 </r>
       <r>   -5.4716    1.0000 </r>
       <r>   -5.2945    1.0000 </r>
       <r>    0.3338    0.0000 </r>
       <r>    0.6102    0.0000 </r>
       <r>    2.2072    0.0000 </r>
       <r>    2.7786    0.0000 </r>
      </set>
      <set comment="kpoint 20">
       <r>  -29.0051    1.0000 </r>
       <r>  -24.0294    1.0000 </r>
       <r>  -20.8209    1.0000 </r>
       <r>  -19.8741    1.0000 </r>
       <r>  -16.7071    1.0000 </r>
       <r>  -15.6253    1.0000 </r>
       <r>  -13.4187    1.0000 </r>
       <r>  -12.9541    1.0000 </r>
       <r>  -12.5069    1.0000 </r>
       <r>  -11.4375    1.0000 </r>
       <r>   -8.7607    1.0000 </r>
       <r>   -8.4342    1.0000 </r>
       <r>   -6.3724    1.0000 </r>
       <r>   -5.8622    1.0000 </r>
       <r>   -0.1487    0.0000 </r>
       <r>    0.2331    0.0000 </r>
       <r>    0.4055    0.0000 </r>
       <r>    1.9925    0.0000 </r>
      </set>
      <set comment="kpoint 21">
       <r>  -28.8717    1.0000 </r>
       <r>  -24.1545    1.0000 </r>
       <r>  -21.1354    1.0000 </r>
       <r>  -19.8465    1.0000 </r>
       <r>  -16.2911    1.0000 </r>
       <r>  -15.9633    1.0000 </r>
       <r>  -13.3658    1.0000 </r>
       <r>  -13.0722    1.0000 </r>
       <r>  -12.4552    1.0000 </r>
       <r>  -11.3013    1.0000 </r>
       <r>   -8.6580    1.0000 </r>
       <r>   -8.4244    1.0000 </r>
       <r>   -6.4071    1.0000 </r>
       <r>   -5.7284    1.0000 </r>
       <r>   -0.1494    0.0000 </r>
       <r>    0.3417    0.0000 </r>
       <r>    0.7153    0.0000 </r>
       <r>    2.1920    0.0000 </r>
      </set>
      <set comment="kpoint 22">
       <r>  -28.6858    1.0000 </r>
       <r>  -24.3790    1.0000 </r>
       <r>  -21.3708    1.0000 </r>
       <r>  -19.8123    1.0000 </r>
       <r>  -16.3371    1.0000 </r>
       <r>  -15.9384    1.0000 </r>
       <r>  -13.4257    1.0000 </r>
       <r>  -13.0516    1.0000 </r>
       <r>  -12.3083    1.0000 </r>
       <r>  -11.2525    1.0000 </r>
       <r>   -8.5832    1.0000 </r>
       <r>   -8.3759    1.0000 </r>
       <r>   -6.3826    1.0000 </r>
       <r>   -5.5828    1.0000 </r>
       <r>   -0.1387    0.0000 </r>
       <r>    0.4931    0.0000 </r>
       <r>    1.0981    0.0000 </r>
       <r>    2.4600    0.0000 </r>
      </set>
      <set comment="kpoint 23">
       <r>  -28.4485    1.0000 </r>
       <r>  -24.7142    1.0000 </r>
       <r>  -21.4692    1.0000 </r>
       <r>  -19.8033    1.0000 </r>
       <r>  -16.6693    1.0000 </r>
       <r>  -15.7516    1.0000 </r>
       <r>  -13.5084    1.0000 </r>
       <r>  -12.9341    1.0000 </r>
       <r>  -12.0819    1.0000 </r>
       <r>  -11.2934    1.0000 </r>
       <r>   -8.6125    1.0000 </r>
       <r>   -8.2404    1.0000 </r>
       <r>   -6.2953    1.0000 </r>
       <r>   -5.4291    1.0000 </r>
       <r>   -0.1081    0.0000 </r>
       <r>    0.7129    0.0000 </r>
       <r>    1.4357    0.0000 </r>
       <r>    2.7788    0.0000 </r>
      </set>
      <set comment="kpoint 24">
       <r>  -28.1614    1.0000 </r>
       <r>  -25.1372    1.0000 </r>
       <r>  -21.4306    1.0000 </r>
       <r>  -19.8558    1.0000 </r>
       <r>  -16.9023    1.0000 </r>
       <r>  -15.7700    1.0000 </r>
       <r>  -13.4862    1.0000 </r>
       <r>  -12.8018    1.0000 </r>
       <r>  -11.8475    1.0000 </r>
       <r>  -11.3880    1.0000 </r>
       <r>   -8.6546    1.0000 </r>
       <r>   -8.1227    1.0000 </r>
       <r>   -6.1457    1.0000 </r>
       <r>   -5.2879    1.0000 </r>
       <r>   -0.0417    0.0000 </r>
       <r>    1.0004    0.0000 </r>
       <r>    1.5623    0.0000 </r>
       <r>    3.1275    0.0000 </r>
      </set>
      <set comment="kpoint 25">
       <r>  -27.8266    1.0000 </r>
       <r>  -25.6092    1.0000 </r>
       <r>  -21.2835    1.0000 </r>
       <r>  -19.9963    1.0000 </r>
       <r>  -16.9933    1.0000 </r>
       <r>  -15.9552    1.0000 </r>
       <r>  -13.3528    1.0000 </r>
       <r>  -12.6982    1.0000 </r>
       <r>  -11.6962    1.0000 </r>
       <r>  -11.4715    1.0000 </r>
       <r>   -8.6440    1.0000 </r>
       <r>   -8.0823    1.0000 </r>
       <r>   -5.9384    1.0000 </r>
       <r>   -5.1951    1.0000 </r>
       <r>    0.0738    0.0000 </r>
       <r>    1.3083    0.0000 </r>
       <r>    1.4570    0.0000 </r>
       <r>    3.4944    0.0000 </r>
      </set>
      <set comment="kpoint 26">
       <r>  -27.4471    1.0000 </r>
       <r>  -26.0959    1.0000 </r>
       <r>  -21.0601    1.0000 </r>
       <r>  -20.2208    1.0000 </r>
       <r>  -16.9373    1.0000 </r>
       <r>  -16.2253    1.0000 </r>
       <r>  -13.1570    1.0000 </r>
       <r>  -12.6764    1.0000 </r>
       <r>  -11.6581    1.0000 </r>
       <r>  -11.4975    1.0000 </r>
       <r>   -8.5558    1.0000 </r>
       <r>   -8.1315    1.0000 </r>
       <r>   -5.6953    1.0000 </r>
       <r>   -5.1858    1.0000 </r>
       <r>    0.2465    0.0000 </r>
       <r>    1.0876    0.0000 </r>
       <r>    1.8007    0.0000 </r>
       <r>    3.4174    0.0000 </r>
      </set>
      <set comment="kpoint 27">
       <r>  -27.0273    1.0000 </r>
       <r>  -26.5736    1.0000 </r>
       <r>  -20.7887    1.0000 </r>
       <r>  -20.4979    1.0000 </r>
       <r>  -16.7629    1.0000 </r>
       <r>  -16.5112    1.0000 </r>
       <r>  -12.9474    1.0000 </r>
       <r>  -12.7695    1.0000 </r>
       <r>  -11.6135    1.0000 </r>
       <r>  -11.5428    1.0000 </r>
       <r>   -8.4098    1.0000 </r>
       <r>   -8.2527    1.0000 </r>
       <r>   -5.4588    1.0000 </r>
       <r>   -5.2772    1.0000 </r>
       <r>    0.4794    0.0000 </r>
       <r>    0.7675    0.0000 </r>
       <r>    2.2865    0.0000 </r>
       <r>    2.8351    0.0000 </r>
      </set>
      <set comment="kpoint 28">
       <r>  -28.7386    1.0000 </r>
       <r>  -24.2304    1.0000 </r>
       <r>  -21.4476    1.0000 </r>
       <r>  -19.8543    1.0000 </r>
       <r>  -16.2874    1.0000 </r>
       <r>  -15.9060    1.0000 </r>
       <r>  -13.3777    1.0000 </r>
       <r>  -13.1670    1.0000 </r>
       <r>  -12.3360    1.0000 </r>
       <r>  -11.1037    1.0000 </r>
       <r>   -8.6346    1.0000 </r>
       <r>   -8.4343    1.0000 </r>
       <r>   -6.4177    1.0000 </r>
       <r>   -5.5870    1.0000 </r>
       <r>   -0.1354    0.0000 </r>
       <r>    0.5379    0.0000 </r>
       <r>    0.9352    0.0000 </r>
       <r>    2.3809    0.0000 </r>
      </set>
      <set comment="kpoint 29">
       <r>  -28.5533    1.0000 </r>
       <r>  -24.3940    1.0000 </r>
       <r>  -21.7061    1.0000 </r>
       <r>  -19.8626    1.0000 </r>
       <r>  -16.6295    1.0000 </r>
       <r>  -15.6037    1.0000 </r>
       <r>  -13.4222    1.0000 </r>
       <r>  -13.1501    1.0000 </r>
       <r>  -12.1673    1.0000 </r>
       <r>  -10.9836    1.0000 </r>
       <r>   -8.6778    1.0000 </r>
       <r>   -8.3469    1.0000 </r>
       <r>   -6.3671    1.0000 </r>
       <r>   -5.4506    1.0000 </r>
       <r>   -0.0954    0.0000 </r>
       <r>    0.7278    0.0000 </r>
       <r>    1.2758    0.0000 </r>
       <r>    2.6132    0.0000 </r>
      </set>
      <set comment="kpoint 30">
       <r>  -28.3168    1.0000 </r>
       <r>  -24.6742    1.0000 </r>
       <r>  -21.8322    1.0000 </r>
       <r>  -19.9081    1.0000 </r>
       <r>  -16.9174    1.0000 </r>
       <r>  -15.4962    1.0000 </r>
       <r>  -13.4043    1.0000 </r>
       <r>  -13.0494    1.0000 </r>
       <r>  -11.9639    1.0000 </r>
       <r>  -10.9742    1.0000 </r>
       <r>   -8.7502    1.0000 </r>
       <r>   -8.1919    1.0000 </r>
       <r>   -6.2615    1.0000 </r>
       <r>   -5.3232    1.0000 </r>
       <r>   -0.0272    0.0000 </r>
       <r>    0.9482    0.0000 </r>
       <r>    1.6277    0.0000 </r>
       <r>    2.8775    0.0000 </r>
      </set>
      <set comment="kpoint 31">
       <r>  -28.0307    1.0000 </r>
       <r>  -25.0596    1.0000 </r>
       <r>  -21.8099    1.0000 </r>
       <r>  -20.0274    1.0000 </r>
       <r>  -17.0898    1.0000 </r>
       <r>  -15.6084    1.0000 </r>
       <r>  -13.2635    1.0000 </r>
       <r>  -12.9103    1.0000 </r>
       <r>  -11.7784    1.0000 </r>
       <r>  -11.0623    1.0000 </r>
       <r>   -8.7763    1.0000 </r>
       <r>   -8.0525    1.0000 </r>
       <r>   -6.1068    1.0000 </r>
       <r>   -5.2143    1.0000 </r>
       <r>    0.0763    0.0000 </r>
       <r>    1.2179    0.0000 </r>
       <r>    1.8074    0.0000 </r>
       <r>    3.1487    0.0000 </r>
      </set>
      <set comment="kpoint 32">
       <r>  -27.6974    1.0000 </r>
       <r>  -25.5094    1.0000 </r>
       <r>  -21.6660    1.0000 </r>
       <r>  -20.2363    1.0000 </r>
       <r>  -17.1159    1.0000 </r>
       <r>  -15.8650    1.0000 </r>
       <r>  -13.0462    1.0000 </r>
       <r>  -12.7593    1.0000 </r>
       <r>  -11.6640    1.0000 </r>
       <r>  -11.2152    1.0000 </r>
       <r>   -8.7122    1.0000 </r>
       <r>   -7.9905    1.0000 </r>
       <r>   -5.9038    1.0000 </r>
       <r>   -5.1476    1.0000 </r>
       <r>    0.2242    0.0000 </r>
       <r>    1.4973    0.0000 </r>
       <r>    1.7323    0.0000 </r>
       <r>    3.4595    0.0000 </r>
      </set>
      <set comment="kpoint 33">
       <r>  -27.3199    1.0000 </r>
       <r>  -25.9836    1.0000 </r>
       <r>  -21.4358    1.0000 </r>
       <r>  -20.5169    1.0000 </r>
       <r>  -17.0047    1.0000 </r>
       <r>  -16.1819    1.0000 </r>
       <r>  -12.8176    1.0000 </r>
       <r>  -12.6285    1.0000 </r>
       <r>  -11.6282    1.0000 </r>
       <r>  -11.3923    1.0000 </r>
       <r>   -8.5586    1.0000 </r>
       <r>   -8.0324    1.0000 </r>
       <r>   -5.6662    1.0000 </r>
       <r>   -5.1534    1.0000 </r>
       <r>    0.4241    0.0000 </r>
       <r>    1.3254    0.0000 </r>
       <r>    1.9903    0.0000 </r>
       <r>    3.4676    0.0000 </r>
      </set>
      <set comment="kpoint 34">
       <r>  -26.9031    1.0000 </r>
       <r>  -26.4540    1.0000 </r>
       <r>  -21.1492    1.0000 </r>
       <r>  -20.8331    1.0000 </r>
       <r>  -16.7884    1.0000 </r>
       <r>  -16.5027    1.0000 </r>
       <r>  -12.6381    1.0000 </r>
       <r>  -12.5704    1.0000 </r>
       <r>  -11.6145    1.0000 </r>
       <r>  -11.5416    1.0000 </r>
       <r>   -8.3583    1.0000 </r>
       <r>   -8.1668    1.0000 </r>
       <r>   -5.4326    1.0000 </r>
       <r>   -5.2505    1.0000 </r>
       <r>    0.6809    0.0000 </r>
       <r>    0.9908    0.0000 </r>
       <r>    2.4363    0.0000 </r>
       <r>    2.9422    0.0000 </r>
      </set>
      <set comment="kpoint 35">
       <r>  -28.3688    1.0000 </r>
       <r>  -24.4705    1.0000 </r>
       <r>  -22.0198    1.0000 </r>
       <r>  -19.9328    1.0000 </r>
       <r>  -16.9215    1.0000 </r>
       <r>  -15.3556    1.0000 </r>
       <r>  -13.5053    1.0000 </r>
       <r>  -13.0371    1.0000 </r>
       <r>  -12.0371    1.0000 </r>
       <r>  -10.7601    1.0000 </r>
       <r>   -8.7860    1.0000 </r>
       <r>   -8.2612    1.0000 </r>
       <r>   -6.3017    1.0000 </r>
       <r>   -5.3276    1.0000 </r>
       <r>   -0.0282    0.0000 </r>
       <r>    0.9887    0.0000 </r>
       <r>    1.5510    0.0000 </r>
       <r>    2.7871    0.0000 </r>
      </set>
      <set comment="kpoint 36">
       <r>  -28.1334    1.0000 </r>
       <r>  -24.6578    1.0000 </r>
       <r>  -22.2134    1.0000 </r>
       <r>  -20.0597    1.0000 </r>
       <r>  -17.1370    1.0000 </r>
       <r>  -15.3030    1.0000 </r>
       <r>  -13.5370    1.0000 </r>
       <r>  -12.8057    1.0000 </r>
       <r>  -11.9168    1.0000 </r>
       <r>  -10.6485    1.0000 </r>
       <r>   -8.8567    1.0000 </r>
       <r>   -8.1279    1.0000 </r>
       <r>   -6.1893    1.0000 </r>
       <r>   -5.2231    1.0000 </r>
       <r>    0.0678    0.0000 </r>
       <r>    1.2506    0.0000 </r>
       <r>    1.8868    0.0000 </r>
       <r>    2.9647    0.0000 </r>
      </set>
      <set comment="kpoint 37">
       <r>  -27.8490    1.0000 </r>
       <r>  -24.9731    1.0000 </r>
       <r>  -22.2403    1.0000 </r>
       <r>  -20.2703    1.0000 </r>
       <r>  -17.2251    1.0000 </r>
       <r>  -15.4613    1.0000 </r>
       <r>  -13.4383    1.0000 </r>
       <r>  -12.5633    1.0000 </r>
       <r>  -11.8208    1.0000 </r>
       <r>  -10.6612    1.0000 </r>
       <r>   -8.8402    1.0000 </r>
       <r>   -7.9922    1.0000 </r>
       <r>   -6.0345    1.0000 </r>
       <r>   -5.1433    1.0000 </r>
       <r>    0.1995    0.0000 </r>
       <r>    1.5210    0.0000 </r>
       <r>    2.1211    0.0000 </r>
       <r>    3.1185    0.0000 </r>
      </set>
      <set comment="kpoint 38">
       <r>  -27.5180    1.0000 </r>
       <r>  -25.3813    1.0000 </r>
       <r>  -22.1189    1.0000 </r>
       <r>  -20.5604    1.0000 </r>
       <r>  -17.1746    1.0000 </r>
       <r>  -15.7514    1.0000 </r>
       <r>  -13.2462    1.0000 </r>
       <r>  -12.4002    1.0000 </r>
       <r>  -11.7325    1.0000 </r>
       <r>  -10.7729    1.0000 </r>
       <r>   -8.7162    1.0000 </r>
       <r>   -7.9172    1.0000 </r>
       <r>   -5.8385    1.0000 </r>
       <r>   -5.1016    1.0000 </r>
       <r>    0.3753    0.0000 </r>
       <r>    1.7564    0.0000 </r>
       <r>    2.0975    0.0000 </r>
       <r>    3.3818    0.0000 </r>
      </set>
      <set comment="kpoint 39">
       <r>  -27.1438    1.0000 </r>
       <r>  -25.8327    1.0000 </r>
       <r>  -21.8917    1.0000 </r>
       <r>  -20.9005    1.0000 </r>
       <r>  -17.0064    1.0000 </r>
       <r>  -16.0934    1.0000 </r>
       <r>  -13.0103    1.0000 </r>
       <r>  -12.3998    1.0000 </r>
       <r>  -11.5879    1.0000 </r>
       <r>  -10.9489    1.0000 </r>
       <r>   -8.5111    1.0000 </r>
       <r>   -7.9447    1.0000 </r>
       <r>   -5.6126    1.0000 </r>
       <r>   -5.1202    1.0000 </r>
       <r>    0.6035    0.0000 </r>
       <r>    1.5927    0.0000 </r>
       <r>    2.2890    0.0000 </r>
       <r>    3.5511    0.0000 </r>
      </set>
      <set comment="kpoint 40">
       <r>  -26.7318    1.0000 </r>
       <r>  -26.2903    1.0000 </r>
       <r>  -21.5946    1.0000 </r>
       <r>  -21.2554    1.0000 </r>
       <r>  -16.7511    1.0000 </r>
       <r>  -16.4375    1.0000 </r>
       <r>  -12.7655    1.0000 </r>
       <r>  -12.5454    1.0000 </r>
       <r>  -11.3830    1.0000 </r>
       <r>  -11.1602    1.0000 </r>
       <r>   -8.2791    1.0000 </r>
       <r>   -8.0752    1.0000 </r>
       <r>   -5.3911    1.0000 </r>
       <r>   -5.2174    1.0000 </r>
       <r>    0.8908    0.0000 </r>
       <r>    1.2333    0.0000 </r>
       <r>    2.6755    0.0000 </r>
       <r>    3.1153    0.0000 </r>
      </set>
      <set comment="kpoint 41">
       <r>  -27.8998    1.0000 </r>
       <r>  -24.7191    1.0000 </r>
       <r>  -22.5117    1.0000 </r>
       <r>  -20.2856    1.0000 </r>
       <r>  -17.2615    1.0000 </r>
       <r>  -15.2419    1.0000 </r>
       <r>  -13.6903    1.0000 </r>
       <r>  -12.4048    1.0000 </r>
       <r>  -11.9363    1.0000 </r>
       <r>  -10.4099    1.0000 </r>
       <r>   -8.8899    1.0000 </r>
       <r>   -8.0348    1.0000 </r>
       <r>   -6.0766    1.0000 </r>
       <r>   -5.1423    1.0000 </r>
       <r>    0.1814    0.0000 </r>
       <r>    1.5716    0.0000 </r>
       <r>    2.2004    0.0000 </r>
       <r>    3.0415    0.0000 </r>
      </set>
      <set comment="kpoint 42">
       <r>  -27.6178    1.0000 </r>
       <r>  -24.9143    1.0000 </r>
       <r>  -22.6399    1.0000 </r>
       <r>  -20.5911    1.0000 </r>
       <r>  -17.2610    1.0000 </r>
       <r>  -15.3608    1.0000 </r>
       <r>  -13.7047    1.0000 </r>
       <r>  -12.1291    1.0000 </r>
       <r>  -11.8924    1.0000 </r>
       <r>  -10.3048    1.0000 </r>
       <r>   -8.8190    1.0000 </r>
       <r>   -7.9277    1.0000 </r>
       <r>   -5.9258    1.0000 </r>
       <r>   -5.0871    1.0000 </r>
       <r>    0.3258    0.0000 </r>
       <r>    1.8684    0.0000 </r>
       <r>    2.4804    0.0000 </r>
       <r>    3.1167    0.0000 </r>
      </set>
      <set comment="kpoint 43">
       <r>  -27.2901    1.0000 </r>
       <r>  -25.2437    1.0000 </r>
       <r>  -22.5799    1.0000 </r>
       <r>  -20.9548    1.0000 </r>
       <r>  -17.1421    1.0000 </r>
       <r>  -15.6277    1.0000 </r>
       <r>  -13.5733    1.0000 </r>
       <r>  -12.2767    1.0000 </r>
       <r>  -11.5352    1.0000 </r>
       <r>  -10.3288    1.0000 </r>
       <r>   -8.6482    1.0000 </r>
       <r>   -7.8556    1.0000 </r>
       <r>   -5.7412    1.0000 </r>
       <r>   -5.0654    1.0000 </r>
       <r>    0.5148    0.0000 </r>
       <r>    2.0556    0.0000 </r>
       <r>    2.5307    0.0000 </r>
       <r>    3.3150    0.0000 </r>
      </set>
      <set comment="kpoint 44">
       <r>  -26.9209    1.0000 </r>
       <r>  -25.6526    1.0000 </r>
       <r>  -22.3772    1.0000 </r>
       <r>  -21.3441    1.0000 </r>
       <r>  -16.9283    1.0000 </r>
       <r>  -15.9649    1.0000 </r>
       <r>  -13.3512    1.0000 </r>
       <r>  -12.5190    1.0000 </r>
       <r>  -11.1915    1.0000 </r>
       <r>  -10.4518    1.0000 </r>
       <r>   -8.4165    1.0000 </r>
       <r>   -7.8681    1.0000 </r>
       <r>   -5.5352    1.0000 </r>
       <r>   -5.0921    1.0000 </r>
       <r>    0.7621    0.0000 </r>
       <r>    1.8524    0.0000 </r>
       <r>    2.6863    0.0000 </r>
       <r>    3.6482    0.0000 </r>
      </set>
      <set comment="kpoint 45">
       <r>  -26.5166    1.0000 </r>
       <r>  -26.0877    1.0000 </r>
       <r>  -22.0817    1.0000 </r>
       <r>  -21.7284    1.0000 </r>
       <r>  -16.6450    1.0000 </r>
       <r>  -16.3155    1.0000 </r>
       <r>  -13.0829    1.0000 </r>
       <r>  -12.7972    1.0000 </r>
       <r>  -10.8947    1.0000 </r>
       <r>  -10.6460    1.0000 </r>
       <r>   -8.1775    1.0000 </r>
       <r>   -7.9817    1.0000 </r>
       <r>   -5.3370    1.0000 </r>
       <r>   -5.1822    1.0000 </r>
       <r>    1.0777    0.0000 </r>
       <r>    1.4570    0.0000 </r>
       <r>    3.0029    0.0000 </r>
       <r>    3.3555    0.0000 </r>
      </set>
      <set comment="kpoint 46">
       <r>  -27.3392    1.0000 </r>
       <r>  -24.9487    1.0000 </r>
       <r>  -22.9124    1.0000 </r>
       <r>  -20.9751    1.0000 </r>
       <r>  -17.1879    1.0000 </r>
       <r>  -15.3669    1.0000 </r>
       <r>  -13.8751    1.0000 </r>
       <r>  -12.2372    1.0000 </r>
       <r>  -11.5046    1.0000 </r>
       <r>  -10.0667    1.0000 </r>
       <r>   -8.7046    1.0000 </r>
       <r>   -7.8554    1.0000 </r>
       <r>   -5.7843    1.0000 </r>
       <r>   -5.0524    1.0000 </r>
       <r>    0.4715    0.0000 </r>
       <r>    2.1906    0.0000 </r>
       <r>    2.8227    0.0000 </r>
       <r>    3.1876    0.0000 </r>
      </set>
      <set comment="kpoint 47">
       <r>  -27.0165    1.0000 </r>
       <r>  -25.1377    1.0000 </r>
       <r>  -22.9772    1.0000 </r>
       <r>  -21.3935    1.0000 </r>
       <r>  -17.0194    1.0000 </r>
       <r>  -15.5314    1.0000 </r>
       <r>  -13.8677    1.0000 </r>
       <r>  -12.5134    1.0000 </r>
       <r>  -11.0580    1.0000 </r>
       <r>   -9.9733    1.0000 </r>
       <r>   -8.5133    1.0000 </r>
       <r>   -7.7982    1.0000 </r>
       <r>   -5.6181    1.0000 </r>
       <r>   -5.0451    1.0000 </r>
       <r>    0.6600    0.0000 </r>
       <r>    2.3332    0.0000 </r>
       <r>    2.9907    0.0000 </r>
       <r>    3.3018    0.0000 </r>
      </set>
      <set comment="kpoint 48">
       <r>  -26.6549    1.0000 </r>
       <r>  -25.4635    1.0000 </r>
       <r>  -22.8416    1.0000 </r>
       <r>  -21.8164    1.0000 </r>
       <r>  -16.7761    1.0000 </r>
       <r>  -15.8168    1.0000 </r>
       <r>  -13.7039    1.0000 </r>
       <r>  -12.8264    1.0000 </r>
       <r>  -10.6794    1.0000 </r>
       <r>  -10.0107    1.0000 </r>
       <r>   -8.2824    1.0000 </r>
       <r>   -7.7992    1.0000 </r>
       <r>   -5.4415    1.0000 </r>
       <r>   -5.0741    1.0000 </r>
       <r>    0.9134    0.0000 </r>
       <r>    2.0763    0.0000 </r>
       <r>    3.1282    0.0000 </r>
       <r>    3.6222    0.0000 </r>
      </set>
      <set comment="kpoint 49">
       <r>  -26.2631    1.0000 </r>
       <r>  -25.8564    1.0000 </r>
       <r>  -22.5705    1.0000 </r>
       <r>  -22.2175    1.0000 </r>
       <r>  -16.4787    1.0000 </r>
       <r>  -16.1491    1.0000 </r>
       <r>  -13.4485    1.0000 </r>
       <r>  -13.1464    1.0000 </r>
       <r>  -10.3771    1.0000 </r>
       <r>  -10.1518    1.0000 </r>
       <r>   -8.0590    1.0000 </r>
       <r>   -7.8876    1.0000 </r>
       <r>   -5.2773    1.0000 </r>
       <r>   -5.1505    1.0000 </r>
       <r>    1.2456    0.0000 </r>
       <r>    1.6505    0.0000 </r>
       <r>    3.3692    0.0000 </r>
       <r>    3.6122    0.0000 </r>
      </set>
      <set comment="kpoint 50">
       <r>  -26.7014    1.0000 </r>
       <r>  -25.1381    1.0000 </r>
       <r>  -23.2162    1.0000 </r>
       <r>  -21.8469    1.0000 </r>
       <r>  -16.8208    1.0000 </r>
       <r>  -15.5346    1.0000 </r>
       <r>  -14.0322    1.0000 </r>
       <r>  -12.8377    1.0000 </r>
       <r>  -10.5945    1.0000 </r>
       <r>   -9.7560    1.0000 </r>
       <r>   -8.3279    1.0000 </r>
       <r>   -7.7505    1.0000 </r>
       <r>   -5.4805    1.0000 </r>
       <r>   -5.0451    1.0000 </r>
       <r>    0.8421    0.0000 </r>
       <r>    2.4478    0.0000 </r>
       <r>    3.3237    0.0000 </r>
       <r>    3.3789    0.0000 </r>
      </set>
      <set comment="kpoint 51">
       <r>  -26.3523    1.0000 </r>
       <r>  -25.3093    1.0000 </r>
       <r>  -23.2208    1.0000 </r>
       <r>  -22.2879    1.0000 </r>
       <r>  -16.5637    1.0000 </r>
       <r>  -15.6926    1.0000 </r>
       <r>  -13.9983    1.0000 </r>
       <r>  -13.1819    1.0000 </r>
       <r>  -10.2133    1.0000 </r>
       <r>   -9.6878    1.0000 </r>
       <r>   -8.1207    1.0000 </r>
       <r>   -7.7395    1.0000 </r>
       <r>   -5.3429    1.0000 </r>
       <r>   -5.0705    1.0000 </r>
       <r>    1.0906    0.0000 </r>
       <r>    2.2208    0.0000 </r>
       <r>    3.4907    0.0000 </r>
       <r>    3.5546    0.0000 </r>
      </set>
      <set comment="kpoint 52">
       <r>  -25.9823    1.0000 </r>
       <r>  -25.6172    1.0000 </r>
       <r>  -23.0192    1.0000 </r>
       <r>  -22.6899    1.0000 </r>
       <r>  -16.2683    1.0000 </r>
       <r>  -15.9622    1.0000 </r>
       <r>  -13.8017    1.0000 </r>
       <r>  -13.5138    1.0000 </r>
       <r>   -9.9310    1.0000 </r>
       <r>   -9.7526    1.0000 </r>
       <r>   -7.9309    1.0000 </r>
       <r>   -7.7967    1.0000 </r>
       <r>   -5.2209    1.0000 </r>
       <r>   -5.1281    1.0000 </r>
       <r>    1.4202    0.0000 </r>
       <r>    1.8184    0.0000 </r>
       <r>    3.6498    0.0000 </r>
       <r>    3.7416    0.0000 </r>
      </set>
      <set comment="kpoint 53">
       <r>  -26.0248    1.0000 </r>
       <r>  -25.2721    1.0000 </r>
       <r>  -23.4201    1.0000 </r>
       <r>  -22.7303    1.0000 </r>
       <r>  -16.3093    1.0000 </r>
       <r>  -15.6686    1.0000 </r>
       <r>  -14.1452    1.0000 </r>
       <r>  -13.5367    1.0000 </r>
       <r>   -9.8481    1.0000 </r>
       <r>   -9.5140    1.0000 </r>
       <r>   -7.9523    1.0000 </r>
       <r>   -7.7049    1.0000 </r>
       <r>   -5.2512    1.0000 </r>
       <r>   -5.0846    1.0000 </r>
       <r>    1.3233    0.0000 </r>
       <r>    2.1868    0.0000 </r>
       <r>    3.5139    0.0000 </r>
       <r>    3.6910    0.0000 </r>
      </set>
      <set comment="kpoint 54">
       <r>  -25.6962    1.0000 </r>
       <r>  -25.4168    1.0000 </r>
       <r>  -23.3679    1.0000 </r>
       <r>  -23.1089    1.0000 </r>
       <r>  -16.0392    1.0000 </r>
       <r>  -15.8001    1.0000 </r>
       <r>  -14.0820    1.0000 </r>
       <r>  -13.8536    1.0000 </r>
       <r>   -9.6047    1.0000 </r>
       <r>   -9.4903    1.0000 </r>
       <r>   -7.8092    1.0000 </r>
       <r>   -7.7228    1.0000 </r>
       <r>   -5.1749    1.0000 </r>
       <r>   -5.1190    1.0000 </r>
       <r>    1.6190    0.0000 </r>
       <r>    1.9421    0.0000 </r>
       <r>    3.6561    0.0000 </r>
       <r>    3.7545    0.0000 </r>
      </set>
      <set comment="kpoint 55">
       <r>  -25.4534    1.0000 </r>
       <r>  -25.3413    1.0000 </r>
       <r>  -23.5225    1.0000 </r>
       <r>  -23.4170    1.0000 </r>
       <r>  -15.8375    1.0000 </r>
       <r>  -15.7407    1.0000 </r>
       <r>  -14.2040    1.0000 </r>
       <r>  -14.1108    1.0000 </r>
       <r>   -9.4190    1.0000 </r>
       <r>   -9.3796    1.0000 </r>
       <r>   -7.7207    1.0000 </r>
       <r>   -7.6906    1.0000 </r>
       <r>   -5.1427    1.0000 </r>
       <r>   -5.1240    1.0000 </r>
       <r>    1.8223    0.0000 </r>
       <r>    1.9547    0.0000 </r>
       <r>    3.6148    0.0000 </r>
       <r>    3.6959    0.0000 </r>
      </set>
     </set>
    </set>
   </array>
  </eigenvalues>
  <separator name="orbital magnetization" >
   <v name="MAGDIPOLOUT">      0.00000000      0.00000000      0.00000000</v>
  </separator>
  <dos>
   <i name="efermi">     -4.74526653 </i>
   <total>
    <array>
     <dimension dim="1">gridpoints</dimension>
     <dimension dim="2">spin</dimension>
     <field>energy</field>
     <field>total</field>
     <field>integrated</field>
     <set>
      <set comment="spin 1">
       <r>   -30.8684     0.0000     0.0000 </r>
       <r>   -30.7475     0.0000     0.0000 </r>
       <r>   -30.6266     0.0000     0.0000 </r>
       <r>   -30.5057     0.0000     0.0000 </r>
       <r>   -30.3848     0.0000     0.0000 </r>
       <r>   -30.2639     0.0000     0.0000 </r>
       <r>   -30.1430     0.0000     0.0000 </r>
       <r>   -30.0220     0.0000     0.0000 </r>
       <r>   -29.9011     0.0000     0.0000 </r>
       <r>   -29.7802     0.0000     0.0000 </r>
       <r>   -29.6593     0.0000     0.0000 </r>
       <r>   -29.5384     0.0000     0.0000 </r>
       <r>   -29.4175     0.0000     0.0000 </r>
       <r>   -29.2966     0.0010     0.0001 </r>
       <r>   -29.1757     0.2459     0.0299 </r>
       <r>   -29.0548     0.6532     0.1088 </r>
       <r>   -28.9339     0.6746     0.1904 </r>
       <r>   -28.8130     0.5571     0.2577 </r>
       <r>   -28.6921     0.7964     0.3540 </r>
       <r>   -28.5712     0.4445     0.4078 </r>
       <r>   -28.4503     0.8776     0.5139 </r>
       <r>   -28.3294     0.4947     0.5737 </r>
       <r>   -28.2085     0.7619     0.6658 </r>
       <r>   -28.0876     0.7483     0.7563 </r>
       <r>   -27.9667     0.4245     0.8076 </r>
       <r>   -27.8458     0.9717     0.9251 </r>
       <r>   -27.7248     0.5391     0.9903 </r>
       <r>   -27.6039     0.5429     1.0559 </r>
       <r>   -27.4830     0.9733     1.1736 </r>
       <r>   -27.3621     0.5148     1.2358 </r>
       <r>   -27.2412     0.7872     1.3310 </r>
       <r>   -27.1203     0.5292     1.3950 </r>
       <r>   -26.9994     0.9661     1.5118 </r>
       <r>   -26.8785     0.7908     1.6074 </r>
       <r>   -26.7576     0.2293     1.6351 </r>
       <r>   -26.6367     1.0887     1.7667 </r>
       <r>   -26.5158     0.8289     1.8670 </r>
       <r>   -26.3949     0.5756     1.9365 </r>
       <r>   -26.2740     0.7260     2.0243 </r>
       <r>   -26.1531     0.7636     2.1166 </r>
       <r>   -26.0322     0.9702     2.2339 </r>
       <r>   -25.9113     0.8255     2.3338 </r>
       <r>   -25.7904     0.6704     2.4148 </r>
       <r>   -25.6695     0.8230     2.5143 </r>
       <r>   -25.5485     1.2716     2.6681 </r>
       <r>   -25.4276     0.9616     2.7843 </r>
       <r>   -25.3067     1.0458     2.9108 </r>
       <r>   -25.1858     1.1024     3.0441 </r>
       <r>   -25.0649     1.2237     3.1920 </r>
       <r>   -24.9440     0.6876     3.2751 </r>
       <r>   -24.8231     0.4621     3.3310 </r>
       <r>   -24.7022     0.9658     3.4478 </r>
       <r>   -24.5813     0.8487     3.5504 </r>
       <r>   -24.4604     0.1438     3.5678 </r>
       <r>   -24.3395     1.2059     3.7136 </r>
       <r>   -24.2186     0.2543     3.7443 </r>
       <r>   -24.0977     0.8304     3.8447 </r>
       <r>   -23.9768     0.5267     3.9084 </r>
       <r>   -23.8559     0.6502     3.9870 </r>
       <r>   -23.7350     0.1074     4.0000 </r>
       <r>   -23.6141     0.0009     4.0001 </r>
       <r>   -23.4932     0.1516     4.0184 </r>
       <r>   -23.3723     0.5277     4.0822 </r>
       <r>   -23.2513     0.3364     4.1229 </r>
       <r>   -23.1304     0.5462     4.1890 </r>
       <r>   -23.0095     0.5587     4.2565 </r>
       <r>   -22.8886     0.6132     4.3306 </r>
       <r>   -22.7677     0.4062     4.3798 </r>
       <r>   -22.6468     0.6537     4.4588 </r>
       <r>   -22.5259     0.9726     4.5764 </r>
       <r>   -22.4050     0.2605     4.6079 </r>
       <r>   -22.2841     0.5439     4.6736 </r>
       <r>   -22.1632     1.1957     4.8182 </r>
       <r>   -22.0423     0.7415     4.9079 </r>
       <r>   -21.9214     0.2686     4.9403 </r>
       <r>   -21.8005     1.2280     5.0888 </r>
       <r>   -21.6796     1.0934     5.2210 </r>
       <r>   -21.5587     0.6605     5.3008 </r>
       <r>   -21.4378     0.8443     5.4029 </r>
       <r>   -21.3169     1.5623     5.5918 </r>
       <r>   -21.1960     1.1466     5.7304 </r>
       <r>   -21.0751     1.8354     5.9523 </r>
       <r>   -20.9541     1.3016     6.1097 </r>
       <r>   -20.8332     1.4369     6.2834 </r>
       <r>   -20.7123     1.2040     6.4290 </r>
       <r>   -20.5914     0.4217     6.4800 </r>
       <r>   -20.4705     1.8558     6.7044 </r>
       <r>   -20.3496     0.3808     6.7504 </r>
       <r>   -20.2287     1.3026     6.9079 </r>
       <r>   -20.1078     0.7755     7.0017 </r>
       <r>   -19.9869     1.4061     7.1717 </r>
       <r>   -19.8660     2.2841     7.4478 </r>
       <r>   -19.7451     3.5148     7.8728 </r>
       <r>   -19.6242     1.0449     7.9991 </r>
       <r>   -19.5033     0.0072     8.0000 </r>
       <r>   -19.3824     0.0000     8.0000 </r>
       <r>   -19.2615     0.0000     8.0000 </r>
       <r>   -19.1406     0.0000     8.0000 </r>
       <r>   -19.0197     0.0000     8.0000 </r>
       <r>   -18.8988     0.0000     8.0000 </r>
       <r>   -18.7778     0.0000     8.0000 </r>
       <r>   -18.6569     0.0000     8.0000 </r>
       <r>   -18.5360     0.0000     8.0000 </r>
       <r>   -18.4151     0.0000     8.0000 </r>
       <r>   -18.2942     0.0000     8.0000 </r>
       <r>   -18.1733     0.0000     8.0000 </r>
       <r>   -18.0524     0.0000     8.0000 </r>
       <r>   -17.9315     0.0001     8.0000 </r>
       <r>   -17.8106     0.0345     8.0042 </r>
       <r>   -17.6897     0.0280     8.0076 </r>
       <r>   -17.5688     0.1635     8.0273 </r>
       <r>   -17.4479     0.1343     8.0436 </r>
       <r>   -17.3270     0.0700     8.0521 </r>
       <r>   -17.2061     1.0192     8.1753 </r>
       <r>   -17.0852     1.9305     8.4087 </r>
       <r>   -16.9643     2.0030     8.6509 </r>
       <r>   -16.8434     2.2345     8.9210 </r>
       <r>   -16.7225     2.6191     9.2377 </r>
       <r>   -16.6016     2.2597     9.5109 </r>
       <r>   -16.4806     1.7660     9.7244 </r>
       <r>   -16.3597     1.5646     9.9136 </r>
       <r>   -16.2388     2.2798    10.1892 </r>
       <r>   -16.1179     1.7367    10.3992 </r>
       <r>   -15.9970     2.0552    10.6477 </r>
       <r>   -15.8761     2.7729    10.9830 </r>
       <r>   -15.7552     1.9125    11.2142 </r>
       <r>   -15.6343     1.9589    11.4510 </r>
       <r>   -15.5134     1.5370    11.6369 </r>
       <r>   -15.3925     1.0462    11.7634 </r>
       <r>   -15.2716     1.2864    11.9189 </r>
       <r>   -15.1507     0.3365    11.9596 </r>
       <r>   -15.0298     0.2505    11.9899 </r>
       <r>   -14.9089     0.0819    11.9998 </r>
       <r>   -14.7880     0.0019    12.0000 </r>
       <r>   -14.6671     0.0000    12.0000 </r>
       <r>   -14.5462     0.0000    12.0000 </r>
       <r>   -14.4253     0.0000    12.0000 </r>
       <r>   -14.3043     0.0004    12.0001 </r>
       <r>   -14.1834     0.1615    12.0196 </r>
       <r>   -14.0625     0.6790    12.1017 </r>
       <r>   -13.9416     0.6191    12.1765 </r>
       <r>   -13.8207     0.9227    12.2881 </r>
       <r>   -13.6998     1.1977    12.4329 </r>
       <r>   -13.5789     2.1727    12.6956 </r>
       <r>   -13.4580     3.3786    13.1041 </r>
       <r>   -13.3371     3.9744    13.5846 </r>
       <r>   -13.2162     1.5816    13.7758 </r>
       <r>   -13.0953     2.1430    14.0349 </r>
       <r>   -12.9744     2.6223    14.3520 </r>
       <r>   -12.8535     2.3879    14.6407 </r>
       <r>   -12.7326     4.2007    15.1486 </r>
       <r>   -12.6117     3.4363    15.5640 </r>
       <r>   -12.4908     3.1850    15.9491 </r>
       <r>   -12.3699     2.0689    16.1992 </r>
       <r>   -12.2490     1.3366    16.3608 </r>
       <r>   -12.1281     0.9016    16.4699 </r>
       <r>   -12.0071     0.8813    16.5764 </r>
       <r>   -11.8862     1.5685    16.7660 </r>
       <r>   -11.7653     1.5385    16.9521 </r>
       <r>   -11.6444     2.4124    17.2437 </r>
       <r>   -11.5235     4.8296    17.8277 </r>
       <r>   -11.4026     4.2488    18.3414 </r>
       <r>   -11.2817     1.4655    18.5186 </r>
       <r>   -11.1608     1.3526    18.6821 </r>
       <r>   -11.0399     1.0054    18.8036 </r>
       <r>   -10.9190     1.2635    18.9564 </r>
       <r>   -10.7981     0.4959    19.0164 </r>
       <r>   -10.6772     0.8939    19.1244 </r>
       <r>   -10.5563     1.1638    19.2651 </r>
       <r>   -10.4354     0.3403    19.3063 </r>
       <r>   -10.3145     0.9762    19.4243 </r>
       <r>   -10.1936     0.6666    19.5049 </r>
       <r>   -10.0727     0.5193    19.5677 </r>
       <r>    -9.9518     0.8116    19.6658 </r>
       <r>    -9.8308     0.5144    19.7280 </r>
       <r>    -9.7099     0.6386    19.8052 </r>
       <r>    -9.5890     0.5769    19.8750 </r>
       <r>    -9.4681     0.5685    19.9437 </r>
       <r>    -9.3472     0.4287    19.9955 </r>
       <r>    -9.2263     0.0368    20.0000 </r>
       <r>    -9.1054     0.0000    20.0000 </r>
       <r>    -8.9845     0.0397    20.0048 </r>
       <r>    -8.8636     0.8681    20.1098 </r>
       <r>    -8.7427     2.3564    20.3947 </r>
       <r>    -8.6218     3.3727    20.8025 </r>
       <r>    -8.5009     3.7602    21.2571 </r>
       <r>    -8.3800     5.0363    21.8660 </r>
       <r>    -8.2591     4.1381    22.3663 </r>
       <r>    -8.1382     3.4540    22.7839 </r>
       <r>    -8.0173     3.0255    23.1497 </r>
       <r>    -7.8964     2.8371    23.4928 </r>
       <r>    -7.7755     2.5130    23.7966 </r>
       <r>    -7.6546     1.6210    23.9926 </r>
       <r>    -7.5336     0.0614    24.0000 </r>
       <r>    -7.4127     0.0000    24.0000 </r>
       <r>    -7.2918     0.0000    24.0000 </r>
       <r>    -7.1709     0.0000    24.0000 </r>
       <r>    -7.0500     0.0000    24.0000 </r>
       <r>    -6.9291     0.0000    24.0000 </r>
       <r>    -6.8082     0.0000    24.0000 </r>
       <r>    -6.6873     0.0000    24.0000 </r>
       <r>    -6.5664     0.0000    24.0000 </r>
       <r>    -6.4455     0.1177    24.0142 </r>
       <r>    -6.3246     2.4175    24.3065 </r>
       <r>    -6.2037     2.3994    24.5966 </r>
       <r>    -6.0828     2.0252    24.8415 </r>
       <r>    -5.9619     1.4945    25.0222 </r>
       <r>    -5.8410     2.0866    25.2744 </r>
       <r>    -5.7201     1.5742    25.4648 </r>
       <r>    -5.5992     2.2385    25.7354 </r>
       <r>    -5.4783     2.0708    25.9858 </r>
       <r>    -5.3574     2.8990    26.3363 </r>
       <r>    -5.2364     4.1586    26.8391 </r>
       <r>    -5.1155     6.0229    27.5673 </r>
       <r>    -4.9946     3.5044    27.9910 </r>
       <r>    -4.8737     0.0746    28.0000 </r>
       <r>    -4.7528     0.0000    28.0000 </r>
       <r>    -4.6319     0.0000    28.0000 </r>
       <r>    -4.5110     0.0000    28.0000 </r>
       <r>    -4.3901     0.0000    28.0000 </r>
       <r>    -4.2692     0.0000    28.0000 </r>
       <r>    -4.1483     0.0000    28.0000 </r>
       <r>    -4.0274     0.0000    28.0000 </r>
       <r>    -3.9065     0.0000    28.0000 </r>
       <r>    -3.7856     0.0000    28.0000 </r>
       <r>    -3.6647     0.0000    28.0000 </r>
       <r>    -3.5438     0.0000    28.0000 </r>
       <r>    -3.4229     0.0000    28.0000 </r>
       <r>    -3.3020     0.0000    28.0000 </r>
       <r>    -3.1811     0.0000    28.0000 </r>
       <r>    -3.0601     0.0000    28.0000 </r>
       <r>    -2.9392     0.0000    28.0000 </r>
       <r>    -2.8183     0.0000    28.0000 </r>
       <r>    -2.6974     0.0000    28.0000 </r>
       <r>    -2.5765     0.0000    28.0000 </r>
       <r>    -2.4556     0.0000    28.0000 </r>
       <r>    -2.3347     0.0000    28.0000 </r>
       <r>    -2.2138     0.0000    28.0000 </r>
       <r>    -2.0929     0.0000    28.0000 </r>
       <r>    -1.9720     0.0000    28.0000 </r>
       <r>    -1.8511     0.0000    28.0000 </r>
       <r>    -1.7302     0.0000    28.0000 </r>
       <r>    -1.6093     0.0000    28.0000 </r>
       <r>    -1.4884     0.0000    28.0000 </r>
       <r>    -1.3675     0.0000    28.0000 </r>
       <r>    -1.2466     0.0000    28.0000 </r>
       <r>    -1.1257     0.0000    28.0000 </r>
       <r>    -1.0048     0.0000    28.0000 </r>
       <r>    -0.8839     0.0000    28.0000 </r>
       <r>    -0.7629     0.0000    28.0000 </r>
       <r>    -0.6420     0.0000    28.0000 </r>
       <r>    -0.5211     0.0000    28.0000 </r>
       <r>    -0.4002     0.0000    28.0000 </r>
       <r>    -0.2793     0.0029    28.0003 </r>
       <r>    -0.1584     1.6779    28.2032 </r>
[...]
        <r>  0.0240  0.0440  0.0000 </r>
        <r>  0.0145  0.2030  0.0000 </r>
        <r>  0.0240  0.0440  0.0000 </r>
        <r>  0.0145  0.2030  0.0000 </r>
       </set>
       <set comment="band 9">
        <r>  0.0076  0.1802  0.0000 </r>
        <r>  0.0101  0.1717  0.0000 </r>
        <r>  0.0028  0.1828  0.0000 </r>
        <r>  0.0005  0.0351  0.0000 </r>
        <r>  0.0028  0.1828  0.0000 </r>
        <r>  0.0005  0.0351  0.0000 </r>
       </set>
       <set comment="band 10">
        <r>  0.0059  0.1741  0.0000 </r>
        <r>  0.0027  0.1836  0.0000 </r>
        <r>  0.0008  0.0360  0.0000 </r>
        <r>  0.0015  0.1863  0.0000 </r>
        <r>  0.0008  0.0360  0.0000 </r>
        <r>  0.0015  0.1863  0.0000 </r>
       </set>
       <set comment="band 11">
        <r>  0.0014  0.0019  0.0000 </r>
        <r>  0.0018  0.0125  0.0000 </r>
        <r>  0.0187  0.2401  0.0000 </r>
        <r>  0.0152  0.0627  0.0000 </r>
        <r>  0.0187  0.2401  0.0000 </r>
        <r>  0.0152  0.0627  0.0000 </r>
       </set>
       <set comment="band 12">
        <r>  0.0006  0.0137  0.0000 </r>
        <r>  0.0011  0.0018  0.0000 </r>
        <r>  0.0108  0.0663  0.0000 </r>
        <r>  0.0183  0.2454  0.0000 </r>
        <r>  0.0108  0.0663  0.0000 </r>
        <r>  0.0183  0.2454  0.0000 </r>
       </set>
       <set comment="band 13">
        <r>  0.0084  0.0106  0.0000 </r>
        <r>  0.0132  0.0082  0.0000 </r>
        <r>  0.0004  0.0433  0.0000 </r>
        <r>  0.0142  0.2533  0.0000 </r>
        <r>  0.0004  0.0433  0.0000 </r>
        <r>  0.0142  0.2533  0.0000 </r>
       </set>
       <set comment="band 14">
        <r>  0.0145  0.0082  0.0000 </r>
        <r>  0.0091  0.0113  0.0000 </r>
        <r>  0.0181  0.2575  0.0000 </r>
        <r>  0.0004  0.0386  0.0000 </r>
        <r>  0.0181  0.2575  0.0000 </r>
        <r>  0.0004  0.0386  0.0000 </r>
       </set>
       <set comment="band 15">
        <r>  0.0099  0.0785  0.0000 </r>
        <r>  0.0116  0.0699  0.0000 </r>
        <r>  0.0016  0.0261  0.0000 </r>
        <r>  0.1019  0.0845  0.0000 </r>
        <r>  0.0016  0.0261  0.0000 </r>
        <r>  0.1019  0.0845  0.0000 </r>
       </set>
       <set comment="band 16">
        <r>  0.0101  0.0665  0.0000 </r>
        <r>  0.0106  0.0772  0.0000 </r>
        <r>  0.1041  0.1032  0.0000 </r>
        <r>  0.0013  0.0223  0.0000 </r>
        <r>  0.1041  0.1032  0.0000 </r>
        <r>  0.0013  0.0223  0.0000 </r>
       </set>
       <set comment="band 17">
        <r>  0.0685  0.0320  0.0000 </r>
        <r>  0.0737  0.1150  0.0000 </r>
        <r>  0.0058  0.0297  0.0000 </r>
        <r>  0.0242  0.0996  0.0000 </r>
        <r>  0.0058  0.0297  0.0000 </r>
        <r>  0.0242  0.0996  0.0000 </r>
       </set>
       <set comment="band 18">
        <r>  0.0612  0.1300  0.0000 </r>
        <r>  0.0275  0.0408  0.0000 </r>
        <r>  0.0274  0.0675  0.0000 </r>
        <r>  0.0092  0.0396  0.0000 </r>
        <r>  0.0274  0.0675  0.0000 </r>
        <r>  0.0092  0.0396  0.0000 </r>
       </set>
      </set>
      <set comment="kpoint 53">
       <set comment="band 1">
        <r>  0.0445  0.0332  0.0000 </r>
        <r>  0.0445  0.0332  0.0000 </r>
        <r>  0.1452  0.0187  0.0000 </r>
        <r>  0.1076  0.0247  0.0000 </r>
        <r>  0.1452  0.0187  0.0000 </r>
        <r>  0.1076  0.0247  0.0000 </r>
       </set>
       <set comment="band 2">
        <r>  0.0000  0.0494  0.0000 </r>
        <r>  0.0000  0.0494  0.0000 </r>
        <r>  0.1028  0.0276  0.0000 </r>
        <r>  0.1851  0.0175  0.0000 </r>
        <r>  0.1028  0.0276  0.0000 </r>
        <r>  0.1851  0.0175  0.0000 </r>
       </set>
       <set comment="band 3">
        <r>  0.1574  0.0043  0.0000 </r>
        <r>  0.1574  0.0043  0.0000 </r>
        <r>  0.1415  0.0336  0.0000 </r>
        <r>  0.0000  0.0337  0.0000 </r>
        <r>  0.1415  0.0336  0.0000 </r>
        <r>  0.0000  0.0337  0.0000 </r>
       </set>
       <set comment="band 4">
        <r>  0.1128  0.0194  0.0000 </r>
        <r>  0.1128  0.0194  0.0000 </r>
        <r>  0.0413  0.0302  0.0000 </r>
        <r>  0.1394  0.0361  0.0000 </r>
        <r>  0.0413  0.0302  0.0000 </r>
        <r>  0.1394  0.0361  0.0000 </r>
       </set>
       <set comment="band 5">
        <r>  0.0163  0.0929  0.0000 </r>
        <r>  0.0163  0.0929  0.0000 </r>
        <r>  0.0073  0.1111  0.0000 </r>
        <r>  0.0719  0.0502  0.0000 </r>
        <r>  0.0073  0.1111  0.0000 </r>
        <r>  0.0719  0.0502  0.0000 </r>
       </set>
       <set comment="band 6">
        <r>  0.0179  0.1015  0.0000 </r>
        <r>  0.0179  0.1015  0.0000 </r>
        <r>  0.0890  0.0103  0.0000 </r>
        <r>  0.0000  0.1394  0.0000 </r>
        <r>  0.0890  0.0103  0.0000 </r>
        <r>  0.0000  0.1394  0.0000 </r>
       </set>
       <set comment="band 7">
        <r>  0.0003  0.0657  0.0000 </r>
        <r>  0.0003  0.0657  0.0000 </r>
        <r>  0.0043  0.2351  0.0000 </r>
        <r>  0.0354  0.0144  0.0000 </r>
        <r>  0.0043  0.2351  0.0000 </r>
        <r>  0.0354  0.0144  0.0000 </r>
       </set>
       <set comment="band 8">
        <r>  0.0017  0.0763  0.0000 </r>
        <r>  0.0017  0.0763  0.0000 </r>
        <r>  0.0245  0.0441  0.0000 </r>
        <r>  0.0146  0.2024  0.0000 </r>
        <r>  0.0245  0.0441  0.0000 </r>
        <r>  0.0146  0.2024  0.0000 </r>
       </set>
       <set comment="band 9">
        <r>  0.0089  0.1790  0.0000 </r>
        <r>  0.0089  0.1790  0.0000 </r>
        <r>  0.0026  0.1839  0.0000 </r>
        <r>  0.0000  0.0341  0.0000 </r>
        <r>  0.0026  0.1839  0.0000 </r>
        <r>  0.0000  0.0341  0.0000 </r>
       </set>
       <set comment="band 10">
        <r>  0.0002  0.1850  0.0000 </r>
        <r>  0.0002  0.1850  0.0000 </r>
        <r>  0.0005  0.0357  0.0000 </r>
        <r>  0.0000  0.1907  0.0000 </r>
        <r>  0.0005  0.0357  0.0000 </r>
        <r>  0.0000  0.1907  0.0000 </r>
       </set>
       <set comment="band 11">
        <r>  0.0016  0.0058  0.0000 </r>
        <r>  0.0016  0.0058  0.0000 </r>
        <r>  0.0188  0.2395  0.0000 </r>
        <r>  0.0156  0.0627  0.0000 </r>
        <r>  0.0188  0.2395  0.0000 </r>
        <r>  0.0156  0.0627  0.0000 </r>
       </set>
       <set comment="band 12">
        <r>  0.0002  0.0062  0.0000 </r>
        <r>  0.0002  0.0062  0.0000 </r>
        <r>  0.0074  0.0692  0.0000 </r>
        <r>  0.0182  0.2500  0.0000 </r>
        <r>  0.0074  0.0692  0.0000 </r>
        <r>  0.0182  0.2500  0.0000 </r>
       </set>
       <set comment="band 13">
        <r>  0.0106  0.0083  0.0000 </r>
        <r>  0.0106  0.0083  0.0000 </r>
        <r>  0.0001  0.0427  0.0000 </r>
        <r>  0.0131  0.2545  0.0000 </r>
        <r>  0.0001  0.0427  0.0000 </r>
        <r>  0.0131  0.2545  0.0000 </r>
       </set>
       <set comment="band 14">
        <r>  0.0126  0.0089  0.0000 </r>
        <r>  0.0126  0.0089  0.0000 </r>
        <r>  0.0206  0.2620  0.0000 </r>
        <r>  0.0000  0.0332  0.0000 </r>
        <r>  0.0206  0.2620  0.0000 </r>
        <r>  0.0000  0.0332  0.0000 </r>
       </set>
       <set comment="band 15">
        <r>  0.0144  0.0760  0.0000 </r>
        <r>  0.0144  0.0760  0.0000 </r>
        <r>  0.0013  0.0243  0.0000 </r>
        <r>  0.1074  0.0765  0.0000 </r>
        <r>  0.0013  0.0243  0.0000 </r>
        <r>  0.1074  0.0765  0.0000 </r>
       </set>
       <set comment="band 16">
        <r>  0.0171  0.0723  0.0000 </r>
        <r>  0.0171  0.0723  0.0000 </r>
        <r>  0.1243  0.1255  0.0000 </r>
        <r>  0.0000  0.0114  0.0000 </r>
        <r>  0.1243  0.1255  0.0000 </r>
        <r>  0.0000  0.0114  0.0000 </r>
       </set>
       <set comment="band 17">
        <r>  0.0343  0.0451  0.0000 </r>
        <r>  0.0343  0.0451  0.0000 </r>
        <r>  0.0027  0.0310  0.0000 </r>
        <r>  0.0160  0.0549  0.0000 </r>
        <r>  0.0027  0.0310  0.0000 </r>
        <r>  0.0160  0.0549  0.0000 </r>
       </set>
       <set comment="band 18">
        <r>  0.0600  0.0827  0.0000 </r>
        <r>  0.0600  0.0827  0.0000 </r>
        <r>  0.0103  0.0129  0.0000 </r>
        <r>  0.0213  0.1099  0.0000 </r>
        <r>  0.0103  0.0129  0.0000 </r>
        <r>  0.0213  0.1099  0.0000 </r>
       </set>
      </set>
      <set comment="kpoint 54">
       <set comment="band 1">
        <r>  0.0287  0.0394  0.0000 </r>
        <r>  0.0287  0.0395  0.0000 </r>
        <r>  0.1587  0.0184  0.0000 </r>
        <r>  0.1055  0.0261  0.0000 </r>
        <r>  0.1587  0.0184  0.0000 </r>
        <r>  0.1055  0.0261  0.0000 </r>
       </set>
       <set comment="band 2">
        <r>  0.0100  0.0464  0.0000 </r>
        <r>  0.0101  0.0462  0.0000 </r>
        <r>  0.1033  0.0273  0.0000 </r>
        <r>  0.1758  0.0178  0.0000 </r>
        <r>  0.1033  0.0273  0.0000 </r>
        <r>  0.1758  0.0178  0.0000 </r>
       </set>
       <set comment="band 3">
        <r>  0.1485  0.0064  0.0000 </r>
        <r>  0.1484  0.0070  0.0000 </r>
        <r>  0.1404  0.0337  0.0000 </r>
        <r>  0.0098  0.0330  0.0000 </r>
        <r>  0.1404  0.0337  0.0000 </r>
        <r>  0.0098  0.0330  0.0000 </r>
       </set>
       <set comment="band 4">
        <r>  0.1297  0.0134  0.0000 </r>
        <r>  0.1298  0.0129  0.0000 </r>
        <r>  0.0273  0.0317  0.0000 </r>
        <r>  0.1390  0.0347  0.0000 </r>
        <r>  0.0273  0.0317  0.0000 </r>
        <r>  0.1390  0.0347  0.0000 </r>
       </set>
       <set comment="band 5">
        <r>  0.0162  0.0962  0.0000 </r>
        <r>  0.0159  0.0958  0.0000 </r>
        <r>  0.0053  0.1201  0.0000 </r>
        <r>  0.0778  0.0375  0.0000 </r>
        <r>  0.0053  0.1201  0.0000 </r>
        <r>  0.0778  0.0375  0.0000 </r>
       </set>
       <set comment="band 6">
        <r>  0.0165  0.0994  0.0000 </r>
        <r>  0.0170  0.1000  0.0000 </r>
        <r>  0.0847  0.0205  0.0000 </r>
        <r>  0.0020  0.1322  0.0000 </r>
        <r>  0.0847  0.0205  0.0000 </r>
        <r>  0.0020  0.1322  0.0000 </r>
       </set>
       <set comment="band 7">
        <r>  0.0012  0.0682  0.0000 </r>
        <r>  0.0001  0.0674  0.0000 </r>
        <r>  0.0076  0.2249  0.0000 </r>
        <r>  0.0336  0.0216  0.0000 </r>
        <r>  0.0076  0.2249  0.0000 </r>
        <r>  0.0336  0.0216  0.0000 </r>
       </set>
       <set comment="band 8">
        <r>  0.0009  0.0719  0.0000 </r>
        <r>  0.0018  0.0724  0.0000 </r>
        <r>  0.0291  0.0341  0.0000 </r>
        <r>  0.0124  0.2103  0.0000 </r>
        <r>  0.0291  0.0341  0.0000 </r>
        <r>  0.0124  0.2103  0.0000 </r>
       </set>
       <set comment="band 9">
        <r>  0.0036  0.1848  0.0000 </r>
        <r>  0.0047  0.1812  0.0000 </r>
        <r>  0.0013  0.1888  0.0000 </r>
        <r>  0.0001  0.0339  0.0000 </r>
        <r>  0.0013  0.1888  0.0000 </r>
        <r>  0.0001  0.0339  0.0000 </r>
       </set>
       <set comment="band 10">
        <r>  0.0018  0.1831  0.0000 </r>
        <r>  0.0005  0.1870  0.0000 </r>
        <r>  0.0003  0.0345  0.0000 </r>
        <r>  0.0004  0.1912  0.0000 </r>
        <r>  0.0003  0.0345  0.0000 </r>
        <r>  0.0004  0.1912  0.0000 </r>
       </set>
       <set comment="band 11">
        <r>  0.0008  0.0043  0.0000 </r>
        <r>  0.0007  0.0089  0.0000 </r>
        <r>  0.0186  0.2438  0.0000 </r>
        <r>  0.0112  0.0671  0.0000 </r>
        <r>  0.0186  0.2438  0.0000 </r>
        <r>  0.0112  0.0671  0.0000 </r>
       </set>
       <set comment="band 12">
        <r>  0.0000  0.0093  0.0000 </r>
        <r>  0.0005  0.0043  0.0000 </r>
        <r>  0.0084  0.0692  0.0000 </r>
        <r>  0.0184  0.2477  0.0000 </r>
        <r>  0.0084  0.0692  0.0000 </r>
        <r>  0.0184  0.2477  0.0000 </r>
       </set>
       <set comment="band 13">
        <r>  0.0103  0.0080  0.0000 </r>
        <r>  0.0123  0.0070  0.0000 </r>
        <r>  0.0001  0.0387  0.0000 </r>
        <r>  0.0150  0.2593  0.0000 </r>
        <r>  0.0001  0.0387  0.0000 </r>
        <r>  0.0150  0.2593  0.0000 </r>
       </set>
       <set comment="band 14">
        <r>  0.0132  0.0071  0.0000 </r>
        <r>  0.0110  0.0083  0.0000 </r>
        <r>  0.0178  0.2618  0.0000 </r>
        <r>  0.0001  0.0352  0.0000 </r>
        <r>  0.0178  0.2618  0.0000 </r>
        <r>  0.0001  0.0352  0.0000 </r>
       </set>
       <set comment="band 15">
        <r>  0.0175  0.0804  0.0000 </r>
        <r>  0.0179  0.0774  0.0000 </r>
        <r>  0.0009  0.0183  0.0000 </r>
        <r>  0.1157  0.0833  0.0000 </r>
        <r>  0.0009  0.0183  0.0000 </r>
        <r>  0.1157  0.0833  0.0000 </r>
       </set>
       <set comment="band 16">
        <r>  0.0190  0.0772  0.0000 </r>
        <r>  0.0198  0.0811  0.0000 </r>
        <r>  0.1235  0.1001  0.0000 </r>
        <r>  0.0004  0.0132  0.0000 </r>
        <r>  0.1235  0.1001  0.0000 </r>
        <r>  0.0004  0.0132  0.0000 </r>
       </set>
       <set comment="band 17">
        <r>  0.0640  0.0567  0.0000 </r>
        <r>  0.0018  0.0647  0.0000 </r>
        <r>  0.0104  0.0383  0.0000 </r>
        <r>  0.0151  0.0458  0.0000 </r>
        <r>  0.0104  0.0383  0.0000 </r>
        <r>  0.0151  0.0458  0.0000 </r>
       </set>
       <set comment="band 18">
        <r>  0.0216  0.0819  0.0000 </r>
        <r>  0.0877  0.0671  0.0000 </r>
        <r>  0.0125  0.0252  0.0000 </r>
        <r>  0.0192  0.0807  0.0000 </r>
        <r>  0.0125  0.0252  0.0000 </r>
        <r>  0.0192  0.0807  0.0000 </r>
       </set>
      </set>
      <set comment="kpoint 55">
       <set comment="band 1">
        <r>  0.0103  0.0465  0.0000 </r>
        <r>  0.0103  0.0465  0.0000 </r>
        <r>  0.1758  0.0176  0.0000 </r>
        <r>  0.1026  0.0273  0.0000 </r>
        <r>  0.1758  0.0176  0.0000 </r>
        <r>  0.1026  0.0273  0.0000 </r>
       </set>
       <set comment="band 2">
        <r>  0.0000  0.0501  0.0000 </r>
        <r>  0.0000  0.0501  0.0000 </r>
        <r>  0.1011  0.0278  0.0000 </r>
        <r>  0.1856  0.0171  0.0000 </r>
        <r>  0.1011  0.0278  0.0000 </r>
        <r>  0.1856  0.0171  0.0000 </r>
       </set>
       <set comment="band 3">
        <r>  0.1595  0.0024  0.0000 </r>
        <r>  0.1595  0.0024  0.0000 </r>
        <r>  0.1415  0.0329  0.0000 </r>
        <r>  0.0000  0.0339  0.0000 </r>
        <r>  0.1415  0.0329  0.0000 </r>
        <r>  0.0000  0.0339  0.0000 </r>
       </set>
       <set comment="band 4">
        <r>  0.1492  0.0060  0.0000 </r>
        <r>  0.1492  0.0060  0.0000 </r>
        <r>  0.0100  0.0331  0.0000 </r>
        <r>  0.1403  0.0333  0.0000 </r>
        <r>  0.0100  0.0331  0.0000 </r>
        <r>  0.1403  0.0333  0.0000 </r>
       </set>
       <set comment="band 5">
        <r>  0.0162  0.1000  0.0000 </r>
        <r>  0.0162  0.1000  0.0000 </r>
        <r>  0.0020  0.1319  0.0000 </r>
        <r>  0.0845  0.0206  0.0000 </r>
        <r>  0.0020  0.1319  0.0000 </r>
        <r>  0.0845  0.0206  0.0000 </r>
       </set>
       <set comment="band 6">
        <r>  0.0167  0.1021  0.0000 </r>
        <r>  0.0167  0.1021  0.0000 </r>
        <r>  0.0884  0.0106  0.0000 </r>
        <r>  0.0000  0.1389  0.0000 </r>
        <r>  0.0884  0.0106  0.0000 </r>
        <r>  0.0000  0.1389  0.0000 </r>
       </set>
       <set comment="band 7">
        <r>  0.0000  0.0652  0.0000 </r>
        <r>  0.0000  0.0652  0.0000 </r>
        <r>  0.0045  0.2334  0.0000 </r>
        <r>  0.0367  0.0144  0.0000 </r>
        <r>  0.0045  0.2334  0.0000 </r>
        <r>  0.0367  0.0144  0.0000 </r>
       </set>
       <set comment="band 8">
        <r>  0.0005  0.0676  0.0000 </r>
        <r>  0.0005  0.0676  0.0000 </r>
        <r>  0.0342  0.0216  0.0000 </r>
        <r>  0.0077  0.2241  0.0000 </r>
        <r>  0.0342  0.0216  0.0000 </r>
        <r>  0.0077  0.2241  0.0000 </r>
       </set>
       <set comment="band 9">
        <r>  0.0011  0.1866  0.0000 </r>
        <r>  0.0011  0.1866  0.0000 </r>
        <r>  0.0003  0.1926  0.0000 </r>
        <r>  0.0000  0.0333  0.0000 </r>
        <r>  0.0003  0.1926  0.0000 </r>
        <r>  0.0000  0.0333  0.0000 </r>
       </set>
       <set comment="band 10">
        <r>  0.0000  0.1874  0.0000 </r>
        <r>  0.0000  0.1874  0.0000 </r>
        <r>  0.0001  0.0335  0.0000 </r>
        <r>  0.0000  0.1935  0.0000 </r>
        <r>  0.0001  0.0335  0.0000 </r>
        <r>  0.0000  0.1935  0.0000 </r>
       </set>
       <set comment="band 11">
        <r>  0.0002  0.0068  0.0000 </r>
        <r>  0.0002  0.0068  0.0000 </r>
        <r>  0.0185  0.2468  0.0000 </r>
        <r>  0.0085  0.0698  0.0000 </r>
        <r>  0.0185  0.2468  0.0000 </r>
        <r>  0.0085  0.0698  0.0000 </r>
       </set>
       <set comment="band 12">
        <r>  0.0000  0.0068  0.0000 </r>
        <r>  0.0000  0.0068  0.0000 </r>
        <r>  0.0074  0.0704  0.0000 </r>
        <r>  0.0185  0.2482  0.0000 </r>
        <r>  0.0074  0.0704  0.0000 </r>
        <r>  0.0185  0.2482  0.0000 </r>
       </set>
       <set comment="band 13">
        <r>  0.0117  0.0065  0.0000 </r>
        <r>  0.0117  0.0065  0.0000 </r>
        <r>  0.0000  0.0357  0.0000 </r>
        <r>  0.0159  0.2626  0.0000 </r>
        <r>  0.0000  0.0357  0.0000 </r>
        <r>  0.0159  0.2626  0.0000 </r>
       </set>
       <set comment="band 14">
        <r>  0.0120  0.0066  0.0000 </r>
        <r>  0.0120  0.0066  0.0000 </r>
        <r>  0.0169  0.2635  0.0000 </r>
        <r>  0.0000  0.0343  0.0000 </r>
        <r>  0.0169  0.2635  0.0000 </r>
        <r>  0.0000  0.0343  0.0000 </r>
       </set>
       <set comment="band 15">
        <r>  0.0242  0.0830  0.0000 </r>
        <r>  0.0242  0.0830  0.0000 </r>
        <r>  0.0003  0.0117  0.0000 </r>
        <r>  0.1292  0.0870  0.0000 </r>
        <r>  0.0003  0.0117  0.0000 </r>
        <r>  0.1292  0.0870  0.0000 </r>
       </set>
       <set comment="band 16">
        <r>  0.0260  0.0840  0.0000 </r>
        <r>  0.0260  0.0840  0.0000 </r>
        <r>  0.1351  0.0943  0.0000 </r>
        <r>  0.0000  0.0089  0.0000 </r>
        <r>  0.1351  0.0943  0.0000 </r>
        <r>  0.0000  0.0089  0.0000 </r>
       </set>
       <set comment="band 17">
        <r>  0.0044  0.0703  0.0000 </r>
        <r>  0.0044  0.0703  0.0000 </r>
        <r>  0.0039  0.0356  0.0000 </r>
        <r>  0.0121  0.0416  0.0000 </r>
        <r>  0.0039  0.0356  0.0000 </r>
        <r>  0.0121  0.0416  0.0000 </r>
       </set>
       <set comment="band 18">
        <r>  0.0196  0.0744  0.0000 </r>
        <r>  0.0196  0.0744  0.0000 </r>
        <r>  0.0115  0.0333  0.0000 </r>
        <r>  0.0123  0.0476  0.0000 </r>
        <r>  0.0115  0.0333  0.0000 </r>
        <r>  0.0123  0.0476  0.0000 </r>
       </set>
      </set>
     </set>
    </set>
   </array>
  </projected>
 </calculation>
 <structure name="finalpos" >
  <crystal>
   <varray name="basis" >
    <v>       3.31500000       0.00000000       0.00000000 </v>
    <v>       0.00000000       3.31500000       0.00000000 </v>
    <v>       0.00000000       0.00000000      24.12651200 </v>
   </varray>
   <i name="volume">    265.13166883 </i>
   <varray name="rec_basis" >
    <v>       0.30165913       0.00000000       0.00000000 </v>
    <v>       0.00000000       0.30165913       0.00000000 </v>
    <v>       0.00000000       0.00000000       0.04144818 </v>
   </varray>
  </crystal>
  <varray name="positions" >
   <v>       0.00000000       0.00000000       0.50000000 </v>
   <v>       0.50000000       0.50000000       0.50000000 </v>
   <v>       0.34555363       0.15444637       0.53165919 </v>
   <v>       0.15444637       0.65444637       0.46834081 </v>
   <v>       0.65444637       0.84555363       0.53165919 </v>
   <v>       0.84555363       0.34555363       0.46834081 </v>
  </varray>
 </structure>
</modeling>
