    6    6    1    1
  0.4418861E+02  0.3315000E-09  0.3315000E-09  0.2412651E-08  0.2500000E-15
  1.000000000000000E-004
  CAR 
 unknown system                          
     28     55     18
 
  0.0000000E+00  0.0000000E+00  0.0000000E+00  0.2770083E-02
    1      -29.219677   1.000000
    2      -23.849011   1.000000
    3      -19.909535   1.000000
    4      -19.909535   1.000000
    5      -17.835222   1.000000
    6      -14.970267   1.000000
    7      -13.668939   1.000000
    8      -12.427858   1.000000
    9      -12.427858   1.000000
   10      -11.954441   1.000000
   11       -8.973928   1.000000
   12       -8.540019   1.000000
   13       -6.153804   1.000000
   14       -6.153804   1.000000
   15       -0.207503   0.000000
   16        0.006022   0.000000
   17        0.006022   0.000000
   18        1.656368   0.000000
 
  0.5263158E-01  0.0000000E+00  0.0000000E+00  0.1108033E-01
    1      -29.192816   1.000000
    2      -23.873500   1.000000
    3      -20.080875   1.000000
    4      -19.895844   1.000000
    5      -17.642780   1.000000
    6      -15.057298   1.000000
    7      -13.625315   1.000000
    8      -12.513064   1.000000
    9      -12.486866   1.000000
   10      -11.843134   1.000000
   11       -8.939185   1.000000
   12       -8.517338   1.000000
   13       -6.178403   1.000000
   14       -6.128453   1.000000
   15       -0.163066   0.000000
   16       -0.011892   0.000000
   17        0.065786   0.000000
   18        1.700142   0.000000
 
  0.1052632E+00  0.0000000E+00  0.0000000E+00  0.1108033E-01
    1      -29.112305   1.000000
    2      -23.956032   1.000000
    3      -20.440965   1.000000
    4      -19.856893   1.000000
    5      -17.216844   1.000000
    6      -15.299929   1.000000
    7      -13.502400   1.000000
    8      -12.641085   1.000000
    9      -12.625414   1.000000
   10      -11.670394   1.000000
   11       -8.837655   1.000000
   12       -8.459999   1.000000
   13       -6.241216   1.000000
   14       -6.051324   1.000000
   15       -0.059489   0.000000
   16       -0.058862   0.000000
   17        0.264908   0.000000
   18        1.828081   0.000000
 
  0.1578947E+00  0.0000000E+00  0.0000000E+00  0.1108033E-01
    1      -28.978583   1.000000
    2      -24.120153   1.000000
    3      -20.790867   1.000000
    4      -19.799893   1.000000
    5      -16.751276   1.000000
    6      -15.647557   1.000000
    7      -13.361463   1.000000
    8      -12.793467   1.000000
    9      -12.678258   1.000000
   10      -11.562287   1.000000
   11       -8.685146   1.000000
   12       -8.395843   1.000000
   13       -6.311416   1.000000
   14       -5.921999   1.000000
   15       -0.117824   0.000000
   16        0.082654   0.000000
   17        0.590813   0.000000
   18        2.033204   0.000000
 
  0.2105263E+00  0.0000000E+00  0.0000000E+00  0.1108033E-01
    1      -28.792287   1.000000
    2      -24.388257   1.000000
    3      -21.028668   1.000000
    4      -19.738549   1.000000
    5      -16.350497   1.000000
    6      -16.034338   1.000000
    7      -13.413852   1.000000
    8      -12.693395   1.000000
    9      -12.679769   1.000000
   10      -11.539532   1.000000
   11       -8.516908   1.000000
   12       -8.358074   1.000000
   13       -6.344653   1.000000
   14       -5.747414   1.000000
   15       -0.168054   0.000000
   16        0.274440   0.000000
   17        0.968534   0.000000
   18        2.309670   0.000000
 
  0.2631579E+00  0.0000000E+00  0.0000000E+00  0.1108033E-01
    1      -28.554414   1.000000
    2      -24.759676   1.000000
    3      -21.121364   1.000000
    4      -19.695673   1.000000
    5      -16.395186   1.000000
    6      -16.076613   1.000000
    7      -13.602450   1.000000
    8      -12.665392   1.000000
    9      -12.367729   1.000000
   10      -11.572297   1.000000
   11       -8.374233   1.000000
   12       -8.368096   1.000000
   13       -6.300196   1.000000
   14       -5.549841   1.000000
   15       -0.189404   0.000000
   16        0.524948   0.000000
   17        1.272950   0.000000
   18        2.654006   0.000000
 
  0.3157895E+00  0.0000000E+00  0.0000000E+00  0.1108033E-01
    1      -28.266476   1.000000
    2      -25.206740   1.000000
    3      -21.081388   1.000000
    4      -19.703201   1.000000
    5      -16.670378   1.000000
    6      -15.972654   1.000000
    7      -13.725744   1.000000
    8      -12.682845   1.000000
    9      -12.003370   1.000000
   10      -11.606169   1.000000
   11       -8.416533   1.000000
   12       -8.285207   1.000000
   13       -6.163670   1.000000
   14       -5.367966   1.000000
   15       -0.164705   0.000000
   16        0.837332   0.000000
   17        1.348632   0.000000
   18        3.062618   0.000000
 
  0.3684211E+00  0.0000000E+00  0.0000000E+00  0.1108033E-01
    1      -27.930547   1.000000
    2      -25.692915   1.000000
    3      -20.939443   1.000000
    4      -19.791403   1.000000
    5      -16.813132   1.000000
    6      -16.043969   1.000000
    7      -13.713853   1.000000
    8      -12.774024   1.000000
    9      -11.694170   1.000000
   10      -11.592703   1.000000
   11       -8.464934   1.000000
   12       -8.258786   1.000000
   13       -5.953539   1.000000
   14       -5.246406   1.000000
   15       -0.081450   0.000000
   16        1.140336   0.000000
   17        1.246026   0.000000
   18        3.485234   0.000000
 
  0.4210526E+00  0.0000000E+00  0.0000000E+00  0.1108033E-01
    1      -27.549512   1.000000
    2      -26.187866   1.000000
    3      -20.726821   1.000000
    4      -19.967570   1.000000
    5      -16.808121   1.000000
    6      -16.235761   1.000000
    7      -13.582808   1.000000
    8      -12.942237   1.000000
    9      -11.528855   1.000000
   10      -11.497086   1.000000
   11       -8.473282   1.000000
   12       -8.288640   1.000000
   13       -5.708345   1.000000
   14       -5.219745   1.000000
   15        0.066906   0.000000
   16        0.863869   0.000000
   17        1.669507   0.000000
   18        3.385550   0.000000
 
  0.4736842E+00  0.0000000E+00  0.0000000E+00  0.1108033E-01
    1      -27.127553   1.000000
    2      -26.670674   1.000000
    3      -20.472638   1.000000
    4      -20.207496   1.000000
    5      -16.678452   1.000000
    6      -16.469485   1.000000
    7      -13.382619   1.000000
    8      -13.157117   1.000000
    9      -11.455208   1.000000
   10      -11.427093   1.000000
   11       -8.429553   1.000000
   12       -8.355851   1.000000
   13       -5.475164   1.000000
   14       -5.300555   1.000000
   15        0.280818   0.000000
   16        0.553523   0.000000
   17        2.182477   0.000000
   18        2.760883   0.000000
 
  0.5263158E-01  0.5263158E-01  0.0000000E+00  0.1108033E-01
    1      -29.165915   1.000000
    2      -23.895799   1.000000
    3      -20.217613   1.000000
    4      -19.900239   1.000000
    5      -17.468173   1.000000
    6      -15.144187   1.000000
    7      -13.586692   1.000000
    8      -12.635960   1.000000
    9      -12.472039   1.000000
   10      -11.756577   1.000000
   11       -8.909710   1.000000
   12       -8.497788   1.000000
   13       -6.228875   1.000000
   14       -6.074061   1.000000
   15       -0.147975   0.000000
   16        0.061245   0.000000
   17        0.064041   0.000000
   18        1.743211   0.000000
 
  0.1052632E+00  0.5263158E-01  0.0000000E+00  0.2216066E-01
    1      -29.085467   1.000000
    2      -23.972038   1.000000
    3      -20.546680   1.000000
    4      -19.871965   1.000000
    5      -17.067406   1.000000
    6      -15.386163   1.000000
    7      -13.479344   1.000000
    8      -12.794660   1.000000
    9      -12.534525   1.000000
   10      -11.597443   1.000000
   11       -8.820204   1.000000
   12       -8.450866   1.000000
   13       -6.297052   1.000000
   14       -5.983120   1.000000
   15       -0.126749   0.000000
   16        0.076371   0.000000
   17        0.283365   0.000000
   18        1.869613   0.000000
 
  0.1578947E+00  0.5263158E-01  0.0000000E+00  0.2216066E-01
    1      -28.951815   1.000000
    2      -24.126589   1.000000
    3      -20.884604   1.000000
    4      -19.819890   1.000000
    5      -16.618911   1.000000
    6      -15.731706   1.000000
    7      -13.363287   1.000000
    8      -12.924939   1.000000
    9      -12.566067   1.000000
   10      -11.487385   1.000000
   11       -8.679625   1.000000
   12       -8.402631   1.000000
   13       -6.351053   1.000000
   14       -5.858777   1.000000
   15       -0.136632   0.000000
   16        0.163142   0.000000
   17        0.617615   0.000000
   18        2.073229   0.000000
 
  0.2105263E+00  0.5263158E-01  0.0000000E+00  0.2216066E-01
    1      -28.765610   1.000000
    2      -24.384325   1.000000
    3      -21.119997   1.000000
    4      -19.763365   1.000000
    5      -16.239406   1.000000
    6      -16.108987   1.000000
    7      -13.424699   1.000000
    8      -12.880570   1.000000
    9      -12.482178   1.000000
   10      -11.463423   1.000000
   11       -8.531318   1.000000
   12       -8.367254   1.000000
   13       -6.361721   1.000000
   14       -5.697965   1.000000
   15       -0.161500   0.000000
   16        0.331784   0.000000
   17        1.000224   0.000000
   18        2.347923   0.000000
 
  0.2631579E+00  0.5263158E-01  0.0000000E+00  0.2216066E-01
    1      -28.527901   1.000000
    2      -24.747325   1.000000
    3      -21.212815   1.000000
    4      -19.727275   1.000000
    5      -16.472647   1.000000
    6      -15.980091   1.000000
    7      -13.587842   1.000000
    8      -12.757479   1.000000
    9      -12.256776   1.000000
   10      -11.504305   1.000000
   11       -8.479070   1.000000
   12       -8.294287   1.000000
   13       -6.301731   1.000000
   14       -5.515467   1.000000
   15       -0.167210   0.000000
   16        0.571208   0.000000
   17        1.314766   0.000000
   18        2.690190   0.000000
 
  0.3157895E+00  0.5263158E-01  0.0000000E+00  0.2216066E-01
    1      -28.240151   1.000000
    2      -25.188825   1.000000
    3      -21.172260   1.000000
    4      -19.744486   1.000000
    5      -16.737526   1.000000
    6      -15.911698   1.000000
    7      -13.671320   1.000000
    8      -12.693801   1.000000
    9      -11.967644   1.000000
   10      -11.554549   1.000000
   11       -8.511972   1.000000
   12       -8.211726   1.000000
   13       -6.160643   1.000000
   14       -5.345695   1.000000
   15       -0.131124   0.000000
   16        0.876722   0.000000
   17        1.403895   0.000000
   18        3.081936   0.000000
 
  0.3684211E+00  0.5263158E-01  0.0000000E+00  0.2216066E-01
    1      -27.904493   1.000000
    2      -25.671680   1.000000
    3      -21.028471   1.000000
    4      -19.844742   1.000000
    5      -16.867682   1.000000
    6      -16.018537   1.000000
    7      -13.622388   1.000000
    8      -12.720183   1.000000
    9      -11.740727   1.000000
   10      -11.539809   1.000000
   11       -8.537521   1.000000
   12       -8.188937   1.000000
   13       -5.951144   1.000000
   14       -5.232162   1.000000
   15       -0.039434   0.000000
   16        1.186931   0.000000
   17        1.294917   0.000000
   18        3.490337   0.000000
 
  0.4210526E+00  0.5263158E-01  0.0000000E+00  0.2216066E-01
    1      -27.523843   1.000000
    2      -26.164716   1.000000
    3      -20.812733   1.000000
    4      -20.032699   1.000000
    5      -16.849549   1.000000
    6      -16.235722   1.000000
    7      -13.468932   1.000000
    8      -12.846042   1.000000
    9      -11.613873   1.000000
   10      -11.465874   1.000000
   11       -8.511517   1.000000
   12       -8.232169   1.000000
   13       -5.706262   1.000000
   14       -5.210415   1.000000
   15        0.115137   0.000000
   16        0.922769   0.000000
   17        1.700514   0.000000
   18        3.392751   0.000000
 
  0.4736842E+00  0.5263158E-01  0.0000000E+00  0.2216066E-01
    1      -27.102393   1.000000
    2      -26.646300   1.000000
    3      -20.553888   1.000000
    4      -20.282028   1.000000
    5      -16.707594   1.000000
    6      -16.485981   1.000000
    7      -13.261038   1.000000
    8      -13.040585   1.000000
    9      -11.514671   1.000000
   10      -11.452325   1.000000
   11       -8.430005   1.000000
   12       -8.323372   1.000000
   13       -5.471639   1.000000
   14       -5.294493   1.000000
   15        0.333832   0.000000
   16        0.610195   0.000000
   17        2.207231   0.000000
   18        2.778554   0.000000
 
  0.1052632E+00  0.1052632E+00  0.0000000E+00  0.1108033E-01
    1      -29.005148   1.000000
    2      -24.029407   1.000000
    3      -20.820914   1.000000
    4      -19.874144   1.000000
    5      -16.707125   1.000000
    6      -15.625267   1.000000
    7      -13.418699   1.000000
    8      -12.954059   1.000000
    9      -12.506858   1.000000
   10      -11.437547   1.000000
   11       -8.760697   1.000000
   12       -8.434186   1.000000
   13       -6.372387   1.000000
   14       -5.862206   1.000000
   15       -0.148680   0.000000
   16        0.233064   0.000000
   17        0.405506   0.000000
   18        1.992478   0.000000
 
  0.1578947E+00  0.1052632E+00  0.0000000E+00  0.2216066E-01
    1      -28.871694   1.000000
    2      -24.154503   1.000000
    3      -21.135358   1.000000
    4      -19.846494   1.000000
    5      -16.291061   1.000000
    6      -15.963331   1.000000
    7      -13.365785   1.000000
    8      -13.072171   1.000000
    9      -12.455212   1.000000
   10      -11.301253   1.000000
   11       -8.657982   1.000000
   12       -8.424425   1.000000
   13       -6.407111   1.000000
   14       -5.728396   1.000000
   15       -0.149446   0.000000
   16        0.341655   0.000000
   17        0.715277   0.000000
   18        2.191973   0.000000
 
  0.2105263E+00  0.1052632E+00  0.0000000E+00  0.2216066E-01
    1      -28.685816   1.000000
    2      -24.378997   1.000000
    3      -21.370751   1.000000
    4      -19.812263   1.000000
    5      -16.337128   1.000000
    6      -15.938415   1.000000
    7      -13.425662   1.000000
    8      -13.051630   1.000000
    9      -12.308305   1.000000
   10      -11.252455   1.000000
   11       -8.583198   1.000000
   12       -8.375874   1.000000
   13       -6.382586   1.000000
   14       -5.582800   1.000000
   15       -0.138749   0.000000
   16        0.493149   0.000000
   17        1.098077   0.000000
   18        2.460038   0.000000
 
  0.2631579E+00  0.1052632E+00  0.0000000E+00  0.2216066E-01
    1      -28.448545   1.000000
    2      -24.714171   1.000000
    3      -21.469172   1.000000
    4      -19.803281   1.000000
    5      -16.669251   1.000000
    6      -15.751577   1.000000
    7      -13.508378   1.000000
    8      -12.934086   1.000000
    9      -12.081873   1.000000
   10      -11.293421   1.000000
   11       -8.612469   1.000000
   12       -8.240356   1.000000
   13       -6.295263   1.000000
   14       -5.429065   1.000000
   15       -0.108113   0.000000
   16        0.712942   0.000000
   17        1.435669   0.000000
   18        2.778848   0.000000
 
  0.3157895E+00  0.1052632E+00  0.0000000E+00  0.2216066E-01
    1      -28.161415   1.000000
    2      -25.137249   1.000000
    3      -21.430561   1.000000
    4      -19.855809   1.000000
    5      -16.902328   1.000000
    6      -15.769976   1.000000
    7      -13.486205   1.000000
    8      -12.801789   1.000000
    9      -11.847480   1.000000
   10      -11.388025   1.000000
   11       -8.654616   1.000000
   12       -8.122723   1.000000
   13       -6.145711   1.000000
   14       -5.287880   1.000000
   15       -0.041711   0.000000
   16        1.000414   0.000000
   17        1.562311   0.000000
   18        3.127505   0.000000
 
  0.3684211E+00  0.1052632E+00  0.0000000E+00  0.2216066E-01
    1      -27.826583   1.000000
    2      -25.609203   1.000000
    3      -21.283545   1.000000
    4      -19.996276   1.000000
    5      -16.993342   1.000000
    6      -15.955174   1.000000
    7      -13.352757   1.000000
    8      -12.698177   1.000000
    9      -11.696243   1.000000
   10      -11.471507   1.000000
   11       -8.643973   1.000000
   12       -8.082335   1.000000
   13       -5.938432   1.000000
   14       -5.195136   1.000000
   15        0.073755   0.000000
   16        1.308256   0.000000
   17        1.457039   0.000000
   18        3.494429   0.000000
 
  0.4210526E+00  0.1052632E+00  0.0000000E+00  0.2216066E-01
    1      -27.447080   1.000000
    2      -26.095852   1.000000
    3      -21.060055   1.000000
    4      -20.220850   1.000000
    5      -16.937301   1.000000
    6      -16.225250   1.000000
    7      -13.156995   1.000000
    8      -12.676388   1.000000
    9      -11.658144   1.000000
   10      -11.497508   1.000000
   11       -8.555814   1.000000
   12       -8.131534   1.000000
   13       -5.695314   1.000000
   14       -5.185831   1.000000
   15        0.246541   0.000000
   16        1.087598   0.000000
   17        1.800688   0.000000
   18        3.417441   0.000000
 
  0.4736842E+00  0.1052632E+00  0.0000000E+00  0.2216066E-01
    1      -27.027289   1.000000
    2      -26.573622   1.000000
    3      -20.788669   1.000000
    4      -20.497852   1.000000
    5      -16.762912   1.000000
    6      -16.511229   1.000000
    7      -12.947374   1.000000
    8      -12.769528   1.000000
    9      -11.613542   1.000000
   10      -11.542770   1.000000
   11       -8.409846   1.000000
   12       -8.252667   1.000000
   13       -5.458833   1.000000
   14       -5.277153   1.000000
   15        0.479420   0.000000
   16        0.767515   0.000000
   17        2.286537   0.000000
   18        2.835076   0.000000
 
  0.1578947E+00  0.1578947E+00  0.0000000E+00  0.1108033E-01
    1      -28.738595   1.000000
    2      -24.230392   1.000000
    3      -21.447626   1.000000
    4      -19.854348   1.000000
    5      -16.287384   1.000000
    6      -15.906045   1.000000
    7      -13.377748   1.000000
    8      -13.167007   1.000000
    9      -12.335962   1.000000
   10      -11.103670   1.000000
   11       -8.634635   1.000000
   12       -8.434311   1.000000
   13       -6.417657   1.000000
   14       -5.587001   1.000000
   15       -0.135356   0.000000
   16        0.537855   0.000000
   17        0.935167   0.000000
   18        2.380947   0.000000
 
  0.2105263E+00  0.1578947E+00  0.0000000E+00  0.2216066E-01
    1      -28.553272   1.000000
    2      -24.394037   1.000000
    3      -21.706074   1.000000
    4      -19.862609   1.000000
    5      -16.629491   1.000000
    6      -15.603656   1.000000
    7      -13.422242   1.000000
    8      -13.150096   1.000000
    9      -12.167305   1.000000
   10      -10.983636   1.000000
   11       -8.677806   1.000000
   12       -8.346876   1.000000
   13       -6.367133   1.000000
   14       -5.450644   1.000000
   15       -0.095381   0.000000
   16        0.727837   0.000000
   17        1.275765   0.000000
   18        2.613162   0.000000
 
  0.2631579E+00  0.1578947E+00  0.0000000E+00  0.2216066E-01
    1      -28.316773   1.000000
    2      -24.674187   1.000000
    3      -21.832192   1.000000
    4      -19.908060   1.000000
    5      -16.917364   1.000000
    6      -15.496248   1.000000
    7      -13.404342   1.000000
    8      -13.049415   1.000000
    9      -11.963899   1.000000
   10      -10.974192   1.000000
   11       -8.750192   1.000000
   12       -8.191942   1.000000
   13       -6.261525   1.000000
   14       -5.323183   1.000000
   15       -0.027214   0.000000
   16        0.948191   0.000000
   17        1.627666   0.000000
   18        2.877481   0.000000
 
  0.3157895E+00  0.1578947E+00  0.0000000E+00  0.2216066E-01
    1      -28.030733   1.000000
    2      -25.059564   1.000000
    3      -21.809866   1.000000
    4      -20.027423   1.000000
    5      -17.089787   1.000000
    6      -15.608381   1.000000
    7      -13.263541   1.000000
    8      -12.910318   1.000000
    9      -11.778400   1.000000
   10      -11.062313   1.000000
   11       -8.776329   1.000000
   12       -8.052535   1.000000
   13       -6.106810   1.000000
   14       -5.214274   1.000000
   15        0.076343   0.000000
   16        1.217945   0.000000
   17        1.807429   0.000000
   18        3.148655   0.000000
 
  0.3684211E+00  0.1578947E+00  0.0000000E+00  0.2216066E-01
    1      -27.697380   1.000000
    2      -25.509436   1.000000
    3      -21.666033   1.000000
    4      -20.236273   1.000000
    5      -17.115916   1.000000
    6      -15.865026   1.000000
    7      -13.046169   1.000000
    8      -12.759285   1.000000
    9      -11.663976   1.000000
   10      -11.215228   1.000000
   11       -8.712204   1.000000
   12       -7.990451   1.000000
   13       -5.903756   1.000000
   14       -5.147645   1.000000
   15        0.224206   0.000000
   16        1.497265   0.000000
   17        1.732330   0.000000
   18        3.459518   0.000000
 
  0.4210526E+00  0.1578947E+00  0.0000000E+00  0.2216066E-01
    1      -27.319947   1.000000
    2      -25.983587   1.000000
    3      -21.435841   1.000000
    4      -20.516878   1.000000
    5      -17.004690   1.000000
    6      -16.181886   1.000000
    7      -12.817564   1.000000
    8      -12.628528   1.000000
    9      -11.628218   1.000000
   10      -11.392276   1.000000
   11       -8.558645   1.000000
   12       -8.032363   1.000000
   13       -5.666180   1.000000
   14       -5.153378   1.000000
   15        0.424123   0.000000
   16        1.325407   0.000000
   17        1.990252   0.000000
   18        3.467603   0.000000
 
  0.4736842E+00  0.1578947E+00  0.0000000E+00  0.2216066E-01
    1      -26.903143   1.000000
    2      -26.454021   1.000000
    3      -21.149202   1.000000
    4      -20.833055   1.000000
    5      -16.788363   1.000000
    6      -16.502665   1.000000
    7      -12.638108   1.000000
    8      -12.570405   1.000000
    9      -11.614519   1.000000
   10      -11.541634   1.000000
   11       -8.358346   1.000000
   12       -8.166764   1.000000
   13       -5.432588   1.000000
   14       -5.250487   1.000000
   15        0.680913   0.000000
   16        0.990798   0.000000
   17        2.436302   0.000000
   18        2.942234   0.000000
 
  0.2105263E+00  0.2105263E+00  0.0000000E+00  0.1108033E-01
    1      -28.368771   1.000000
    2      -24.470489   1.000000
    3      -22.019808   1.000000
    4      -19.932782   1.000000
    5      -16.921465   1.000000
    6      -15.355613   1.000000
    7      -13.505287   1.000000
    8      -13.037134   1.000000
    9      -12.037100   1.000000
   10      -10.760091   1.000000
   11       -8.785956   1.000000
   12       -8.261184   1.000000
   13       -6.301715   1.000000
   14       -5.327603   1.000000
   15       -0.028194   0.000000
   16        0.988672   0.000000
   17        1.551031   0.000000
   18        2.787051   0.000000
 
  0.2631579E+00  0.2105263E+00  0.0000000E+00  0.2216066E-01
    1      -28.133440   1.000000
    2      -24.657829   1.000000
    3      -22.213421   1.000000
    4      -20.059722   1.000000
    5      -17.136987   1.000000
    6      -15.303002   1.000000
    7      -13.536965   1.000000
    8      -12.805719   1.000000
    9      -11.916842   1.000000
   10      -10.648526   1.000000
   11       -8.856747   1.000000
   12       -8.127898   1.000000
   13       -6.189274   1.000000
   14       -5.223150   1.000000
   15        0.067793   0.000000
   16        1.250593   0.000000
   17        1.886783   0.000000
   18        2.964677   0.000000
 
  0.3157895E+00  0.2105263E+00  0.0000000E+00  0.2216066E-01
    1      -27.849049   1.000000
    2      -24.973064   1.000000
    3      -22.240282   1.000000
    4      -20.270259   1.000000
    5      -17.225056   1.000000
    6      -15.461321   1.000000
    7      -13.438315   1.000000
    8      -12.563250   1.000000
    9      -11.820785   1.000000
   10      -10.661243   1.000000
   11       -8.840245   1.000000
   12       -7.992197   1.000000
   13       -6.034500   1.000000
   14       -5.143291   1.000000
   15        0.199507   0.000000
   16        1.521043   0.000000
   17        2.121091   0.000000
   18        3.118513   0.000000
 
  0.3684211E+00  0.2105263E+00  0.0000000E+00  0.2216066E-01
    1      -27.517970   1.000000
    2      -25.381298   1.000000
    3      -22.118919   1.000000
    4      -20.560396   1.000000
    5      -17.174606   1.000000
    6      -15.751392   1.000000
    7      -13.246188   1.000000
    8      -12.400169   1.000000
    9      -11.732485   1.000000
   10      -10.772949   1.000000
   11       -8.716235   1.000000
   12       -7.917168   1.000000
   13       -5.838485   1.000000
   14       -5.101555   1.000000
   15        0.375271   0.000000
   16        1.756415   0.000000
   17        2.097531   0.000000
   18        3.381805   0.000000
 
  0.4210526E+00  0.2105263E+00  0.0000000E+00  0.2216066E-01
    1      -27.143791   1.000000
    2      -25.832673   1.000000
    3      -21.891698   1.000000
    4      -20.900535   1.000000
    5      -17.006398   1.000000
    6      -16.093397   1.000000
    7      -13.010347   1.000000
    8      -12.399756   1.000000
    9      -11.587928   1.000000
   10      -10.948898   1.000000
   11       -8.511097   1.000000
   12       -7.944664   1.000000
   13       -5.612606   1.000000
   14       -5.120157   1.000000
   15        0.603471   0.000000
   16        1.592730   0.000000
   17        2.288988   0.000000
   18        3.551053   0.000000
 
  0.4736842E+00  0.2105263E+00  0.0000000E+00  0.2216066E-01
    1      -26.731818   1.000000
    2      -26.290332   1.000000
    3      -21.594563   1.000000
    4      -21.255391   1.000000
    5      -16.751076   1.000000
    6      -16.437550   1.000000
    7      -12.765499   1.000000
    8      -12.545372   1.000000
    9      -11.382980   1.000000
   10      -11.160182   1.000000
   11       -8.279054   1.000000
   12       -8.075182   1.000000
   13       -5.391084   1.000000
   14       -5.217406   1.000000
   15        0.890806   0.000000
   16        1.233326   0.000000
   17        2.675465   0.000000
   18        3.115322   0.000000
 
  0.2631579E+00  0.2631579E+00  0.0000000E+00  0.1108033E-01
    1      -27.899840   1.000000
    2      -24.719069   1.000000
    3      -22.511702   1.000000
    4      -20.285556   1.000000
    5      -17.261528   1.000000
    6      -15.241938   1.000000
    7      -13.690294   1.000000
    8      -12.404819   1.000000
    9      -11.936349   1.000000
   10      -10.409930   1.000000
   11       -8.889898   1.000000
   12       -8.034801   1.000000
   13       -6.076569   1.000000
   14       -5.142331   1.000000
   15        0.181431   0.000000
   16        1.571638   0.000000
   17        2.200366   0.000000
   18        3.041547   0.000000
 
  0.3157895E+00  0.2631579E+00  0.0000000E+00  0.2216066E-01
    1      -27.617799   1.000000
    2      -24.914300   1.000000
    3      -22.639897   1.000000
    4      -20.591092   1.000000
    5      -17.261029   1.000000
    6      -15.360813   1.000000
    7      -13.704729   1.000000
    8      -12.129107   1.000000
    9      -11.892410   1.000000
   10      -10.304787   1.000000
   11       -8.819046   1.000000
   12       -7.927750   1.000000
   13       -5.925837   1.000000
   14       -5.087065   1.000000
   15        0.325753   0.000000
   16        1.868444   0.000000
   17        2.480406   0.000000
   18        3.116731   0.000000
 
  0.3684211E+00  0.2631579E+00  0.0000000E+00  0.2216066E-01
    1      -27.290092   1.000000
    2      -25.243747   1.000000
    3      -22.579910   1.000000
    4      -20.954819   1.000000
    5      -17.142089   1.000000
    6      -15.627709   1.000000
    7      -13.573262   1.000000
    8      -12.276733   1.000000
    9      -11.535153   1.000000
   10      -10.328762   1.000000
   11       -8.648169   1.000000
   12       -7.855571   1.000000
   13       -5.741229   1.000000
   14       -5.065441   1.000000
   15        0.514762   0.000000
   16        2.055626   0.000000
   17        2.530727   0.000000
   18        3.315016   0.000000
 
  0.4210526E+00  0.2631579E+00  0.0000000E+00  0.2216066E-01
    1      -26.920874   1.000000
    2      -25.652607   1.000000
    3      -22.377155   1.000000
    4      -21.344080   1.000000
    5      -16.928330   1.000000
    6      -15.964897   1.000000
    7      -13.351208   1.000000
    8      -12.519030   1.000000
    9      -11.191496   1.000000
   10      -10.451840   1.000000
   11       -8.416478   1.000000
   12       -7.868111   1.000000
   13       -5.535245   1.000000
   14       -5.092050   1.000000
   15        0.762064   0.000000
   16        1.852385   0.000000
   17        2.686345   0.000000
   18        3.648207   0.000000
 
  0.4736842E+00  0.2631579E+00  0.0000000E+00  0.2216066E-01
    1      -26.516580   1.000000
    2      -26.087749   1.000000
    3      -22.081674   1.000000
    4      -21.728443   1.000000
    5      -16.644983   1.000000
    6      -16.315494   1.000000
    7      -13.082859   1.000000
    8      -12.797163   1.000000
    9      -10.894667   1.000000
   10      -10.646035   1.000000
   11       -8.177522   1.000000
   12       -7.981673   1.000000
   13       -5.337028   1.000000
   14       -5.182158   1.000000
   15        1.077713   0.000000
   16        1.457021   0.000000
   17        3.002913   0.000000
   18        3.355492   0.000000
 
  0.3157895E+00  0.3157895E+00  0.0000000E+00  0.1108033E-01
    1      -27.339166   1.000000
    2      -24.948712   1.000000
    3      -22.912369   1.000000
    4      -20.975099   1.000000
    5      -17.187915   1.000000