       N       E                     dE             d eps       ncg     rms          rms(c)
DAV:   1    -0.500242386829E+02   -0.50024E+02   -0.66232E+00  2508   0.176E+01
DAV:   2    -0.500432994696E+02   -0.19061E-01   -0.19061E-01  2466   0.399E+00
DAV:   3    -0.500436228865E+02   -0.32342E-03   -0.32341E-03  2862   0.466E-01
DAV:   4    -0.500436321922E+02   -0.93057E-05   -0.93054E-05  2730   0.754E-02
DAV:   5    -0.500436323894E+02   -0.19716E-06   -0.19716E-06  1932   0.107E-02    0.118E+01
DAV:   6    -0.483536462693E+02    0.16900E+01   -0.37837E+00  2556   0.132E+01    0.634E+00
DAV:   7    -0.480814057553E+02    0.27224E+00   -0.76256E-01  2514   0.644E+00    0.235E+00
DAV:   8    -0.480830203742E+02   -0.16146E-02   -0.79122E-02  2598   0.218E+00    0.602E-01
DAV:   9    -0.480816891722E+02    0.13312E-02   -0.12076E-02  2436   0.871E-01    0.105E-01
DAV:  10    -0.480818727911E+02   -0.18362E-03   -0.85353E-04  2550   0.238E-01    0.334E-02
DAV:  11    -0.480819676551E+02   -0.94864E-04   -0.71430E-05  2370   0.669E-02    0.147E-02
DAV:  12    -0.480820573693E+02   -0.89714E-04   -0.18825E-05  1830   0.370E-02    0.355E-03
DAV:  13    -0.480820881020E+02   -0.30733E-04   -0.38371E-06  1836   0.143E-02    0.243E-03
DAV:  14    -0.480821528177E+02   -0.64716E-04   -0.21062E-06  1740   0.108E-02    0.218E-03
DAV:  15    -0.480821678882E+02   -0.15071E-04   -0.40647E-07  1848   0.443E-03    0.156E-03
DAV:  16    -0.480821828037E+02   -0.14915E-04   -0.55141E-07  1806   0.469E-03    0.556E-04
DAV:  17    -0.480821845199E+02   -0.17163E-05   -0.98689E-08  1806   0.248E-03
   1 F= -.48082185E+02 E0= -.48082185E+02  d E =-.241149E-18
