 vasp.5.4.1 24Jun15 (build Jul 24 2020 21:16:16) complex                        
  
 executed on           IFC91_ompi date 2022.05.17  17:00:43
 running on   48 total cores
 distrk:  each k-point on   48 cores,    1 groups
 distr:  one band on NCORES_PER_BAND=   8 cores,    6 groups


--------------------------------------------------------------------------------------------------------


 INCAR:
 POTCAR:    PAW_PBE C 08Apr2002                   
 POTCAR:    PAW_PBE N 08Apr2002                   
 POTCAR:    PAW_PBE C 08Apr2002                   
   VRHFIN =C: s2p2                                                              
   LEXCH  = PE                                                                  
   EATOM  =   147.1560 eV,   10.8157 Ry                                         
                                                                                
   TITEL  = PAW_PBE C 08Apr2002                                                 
   LULTRA =        F    use ultrasoft PP ?                                      
   IUNSCR =        1    unscreen: 0-lin 1-nonlin 2-no                           
   RPACOR =    1.200    partial core radius                                     
   POMASS =   12.011; ZVAL   =    4.000    mass and valenz                      
   RCORE  =    1.500    outmost cutoff radius                                   
   RWIGS  =    1.630; RWIGS  =    0.863    wigner-seitz radius (au A)           
   ENMAX  =  400.000; ENMIN  =  300.000 eV                                      
   ICORE  =        2    local potential                                         
   LCOR   =        T    correct aug charges                                     
   LPAW   =        T    paw PP                                                  
   EAUG   =  644.873                                                            
   DEXC   =    0.000                                                            
   RMAX   =    1.529    core radius for proj-oper                               
   RAUG   =    1.300    factor for augmentation sphere                          
   RDEP   =    1.501    radius for radial grids                                 
   RDEPT  =    1.300    core radius for aug-charge                              
                                                                                
   Atomic configuration                                                         
    4 entries                                                                   
     n  l   j            E        occ.                                          
     1  0  0.50      -273.3789   2.0000                                         
     2  0  0.50       -13.7508   2.0000                                         
     2  1  0.50        -5.2854   2.0000                                         
     3  2  1.50        -5.4423   0.0000                                         
   Description                                                                  
     l       E           TYP  RCUT    TYP  RCUT                                 
     0    -13.7508458     23  1.200                                             
     0     -8.2022199     23  1.200                                             
     1     -5.2854383     23  1.500                                             
     1     34.0145650     23  1.500                                             
     2     -5.4423304      7  1.500                                             
  local pseudopotential read in
  partial core-charges read in
  partial kinetic energy density read in
  atomic valenz-charges read in
  non local Contribution for L=           0  read in
    real space projection operators read in
  non local Contribution for L=           0  read in
    real space projection operators read in
  non local Contribution for L=           1  read in
    real space projection operators read in
  non local Contribution for L=           1  read in
    real space projection operators read in
    PAW grid and wavefunctions read in
 
   number of l-projection  operators is LMAX  =           4
   number of lm-projection operators is LMMAX =           8
 
 POTCAR:    PAW_PBE N 08Apr2002                   
   VRHFIN =N: s2p3                                                              
   LEXCH  = PE                                                                  
   EATOM  =   264.5486 eV,   19.4438 Ry                                         
                                                                                
   TITEL  = PAW_PBE N 08Apr2002                                                 
   LULTRA =        F    use ultrasoft PP ?                                      
   IUNSCR =        1    unscreen: 0-lin 1-nonlin 2-no                           
   RPACOR =    1.200    partial core radius                                     
   POMASS =   14.001; ZVAL   =    5.000    mass and valenz                      
   RCORE  =    1.500    outmost cutoff radius                                   
   RWIGS  =    1.400; RWIGS  =    0.741    wigner-seitz radius (au A)           
   ENMAX  =  400.000; ENMIN  =  300.000 eV                                      
   ICORE  =        2    local potential                                         
   LCOR   =        T    correct aug charges                                     
   LPAW   =        T    paw PP                                                  
   EAUG   =  627.112                                                            
   DEXC   =    0.000                                                            
   RMAX   =    1.529    core radius for proj-oper                               
   RAUG   =    1.300    factor for augmentation sphere                          
   RDEP   =    1.514    radius for radial grids                                 
   RDEPT  =    1.338    core radius for aug-charge                              
                                                                                
   Atomic configuration                                                         
    4 entries                                                                   
     n  l   j            E        occ.                                          
     1  0  0.50      -384.7179   2.0000                                         
     2  0  0.50       -18.5828   2.0000                                         
     2  1  0.50        -7.0898   3.0000                                         
     3  2  1.50        -6.8029   0.0000                                         
   Description                                                                  
     l       E           TYP  RCUT    TYP  RCUT                                 
     0    -18.5828119     23  1.200                                             
     0    -13.5018863     23  1.200                                             
     1     -7.0897853     23  1.500                                             
     1      9.5240782     23  1.500                                             
     2     -6.8029130      7  1.500                                             
  local pseudopotential read in
  partial core-charges read in
  partial kinetic energy density read in
  atomic valenz-charges read in
  non local Contribution for L=           0  read in
    real space projection operators read in
  non local Contribution for L=           0  read in
    real space projection operators read in
  non local Contribution for L=           1  read in
    real space projection operators read in
  non local Contribution for L=           1  read in
    real space projection operators read in
    PAW grid and wavefunctions read in
 
   number of l-projection  operators is LMAX  =           4
   number of lm-projection operators is LMMAX =           8
 
  PAW_PBE C 08Apr2002                   :
 energy of atom  1       EATOM= -147.1560
 kinetic energy error for atom=    0.0076 (will be added to EATOM!!)
  PAW_PBE N 08Apr2002                   :
 energy of atom  2       EATOM= -264.5486
 kinetic energy error for atom=    0.0138 (will be added to EATOM!!)
 
 
 POSCAR: C2 N4                                   
  positions in direct lattice
  velocities in cartesian coordinates
 exchange correlation table for  LEXCH =        8
   RHO(1)=    0.500       N(1)  =     2000
   RHO(2)=  100.500       N(2)  =     4000
 


--------------------------------------------------------------------------------------------------------


 ion  position               nearest neighbor table
   1  0.000  0.000  0.500-   3 1.47   4 1.47   5 1.47   6 1.47
   2  0.500  0.500  0.500-   3 1.47   4 1.47   5 1.47   6 1.47
   3  0.346  0.154  0.532-   5 1.45   2 1.47   1 1.47
   4  0.154  0.654  0.468-   6 1.45   2 1.47   1 1.47
   5  0.654  0.846  0.532-   3 1.45   2 1.47   1 1.47
   6  0.846  0.346  0.468-   4 1.45   2 1.47   1 1.47
 
  LATTYP: Found a simple tetragonal cell.
 ALAT       =     3.3150000000
 C/A-ratio  =     7.2779825038
  
  Lattice vectors:
  
 A1 = (   3.3150000000,   0.0000000000,   0.0000000000)
 A2 = (   0.0000000000,   3.3150000000,   0.0000000000)
 A3 = (   0.0000000000,   0.0000000000,  24.1265120000)


Analysis of symmetry for initial positions (statically):
=====================================================================
 Subroutine PRICEL returns:
 Original cell was already a primitive cell.
 

 Routine SETGRP: Setting up the symmetry group for a 
 simple tetragonal supercell.


 Subroutine GETGRP returns: Found  8 space group operations
 (whereof  4 operations were pure point group operations)
 out of a pool of 16 trial point group operations.


The static configuration has the point symmetry S_4 .
 The point group associated with its full space group is D_2d.


Analysis of symmetry for dynamics (positions and initial velocities):
=====================================================================
 Subroutine PRICEL returns:
 Original cell was already a primitive cell.
 

 Routine SETGRP: Setting up the symmetry group for a 
 simple tetragonal supercell.


 Subroutine GETGRP returns: Found  8 space group operations
 (whereof  4 operations were pure point group operations)
 out of a pool of 16 trial point group operations.


The dynamic configuration has the point symmetry S_4 .
 The point group associated with its full space group is D_2d.


 Subroutine INISYM returns: Found  8 space group operations
 (whereof  4 operations are pure point group operations),
 and found     1 'primitive' translations

 
 
 KPOINTS: Auto generated by PyGec                 

Automatic generation of k-mesh.
Space group operators:
 irot       det(A)        alpha          n_x          n_y          n_z        tau_x        tau_y        tau_z
    1     1.000000     0.000000     1.000000     0.000000     0.000000     0.000000     0.000000     0.000000
    2    -1.000000    90.000000     0.000000     0.000000    -1.000000     0.000000     0.000000     0.000000
    3     1.000000   180.000000     0.000000     0.000000     1.000000     0.000000     0.000000     0.000000
    4    -1.000000    90.000000     0.000000     0.000000     1.000000     0.000000     0.000000     0.000000
    5     1.000000   180.000000     0.000000     1.000000     0.000000     0.500000     0.500000     0.000000
    6    -1.000000   180.000000     0.707107     0.707107     0.000000     0.500000     0.500000     0.000000
    7     1.000000   180.000000     1.000000     0.000000     0.000000     0.500000     0.500000     0.000000
    8    -1.000000   180.000000     0.707107    -0.707107     0.000000     0.500000     0.500000     0.000000
 
 Subroutine IBZKPT returns following result:
 ===========================================
 
 Found     55 irreducible k-points:
 
 Following reciprocal coordinates:
            Coordinates               Weight
  0.000000  0.000000  0.000000      1.000000
  0.052632  0.000000  0.000000      4.000000
  0.105263  0.000000  0.000000      4.000000
  0.157895  0.000000  0.000000      4.000000
  0.210526  0.000000  0.000000      4.000000
  0.263158  0.000000  0.000000      4.000000
  0.315789  0.000000  0.000000      4.000000
  0.368421  0.000000  0.000000      4.000000
  0.421053  0.000000  0.000000      4.000000
  0.473684  0.000000  0.000000      4.000000
  0.052632  0.052632  0.000000      4.000000
  0.105263  0.052632  0.000000      8.000000
  0.157895  0.052632  0.000000      8.000000
  0.210526  0.052632  0.000000      8.000000
  0.263158  0.052632  0.000000      8.000000
  0.315789  0.052632  0.000000      8.000000
  0.368421  0.052632  0.000000      8.000000
  0.421053  0.052632  0.000000      8.000000
  0.473684  0.052632  0.000000      8.000000
  0.105263  0.105263  0.000000      4.000000
  0.157895  0.105263  0.000000      8.000000
  0.210526  0.105263  0.000000      8.000000
  0.263158  0.105263  0.000000      8.000000
  0.315789  0.105263  0.000000      8.000000
  0.368421  0.105263  0.000000      8.000000
  0.421053  0.105263  0.000000      8.000000
  0.473684  0.105263  0.000000      8.000000
  0.157895  0.157895  0.000000      4.000000
  0.210526  0.157895  0.000000      8.000000
  0.263158  0.157895  0.000000      8.000000
  0.315789  0.157895  0.000000      8.000000
  0.368421  0.157895  0.000000      8.000000
  0.421053  0.157895  0.000000      8.000000
  0.473684  0.157895  0.000000      8.000000
  0.210526  0.210526  0.000000      4.000000
  0.263158  0.210526  0.000000      8.000000
  0.315789  0.210526  0.000000      8.000000
  0.368421  0.210526  0.000000      8.000000
  0.421053  0.210526  0.000000      8.000000
  0.473684  0.210526  0.000000      8.000000
  0.263158  0.263158  0.000000      4.000000
  0.315789  0.263158  0.000000      8.000000
  0.368421  0.263158  0.000000      8.000000
  0.421053  0.263158  0.000000      8.000000
  0.473684  0.263158  0.000000      8.000000
  0.315789  0.315789  0.000000      4.000000
  0.368421  0.315789  0.000000      8.000000
  0.421053  0.315789  0.000000      8.000000
  0.473684  0.315789  0.000000      8.000000
  0.368421  0.368421  0.000000      4.000000
  0.421053  0.368421  0.000000      8.000000
  0.473684  0.368421  0.000000      8.000000
  0.421053  0.421053  0.000000      4.000000
  0.473684  0.421053  0.000000      8.000000
  0.473684  0.473684  0.000000      4.000000
 
 Following cartesian coordinates:
            Coordinates               Weight
  0.000000  0.000000  0.000000      1.000000
  0.015877  0.000000  0.000000      4.000000
  0.031754  0.000000  0.000000      4.000000
  0.047630  0.000000  0.000000      4.000000
  0.063507  0.000000  0.000000      4.000000
  0.079384  0.000000  0.000000      4.000000
  0.095261  0.000000  0.000000      4.000000
  0.111138  0.000000  0.000000      4.000000
  0.127014  0.000000  0.000000      4.000000
  0.142891  0.000000  0.000000      4.000000
  0.015877  0.015877  0.000000      4.000000
  0.031754  0.015877  0.000000      8.000000
  0.047630  0.015877  0.000000      8.000000
  0.063507  0.015877  0.000000      8.000000
  0.079384  0.015877  0.000000      8.000000
  0.095261  0.015877  0.000000      8.000000
  0.111138  0.015877  0.000000      8.000000
  0.127014  0.015877  0.000000      8.000000
  0.142891  0.015877  0.000000      8.000000
  0.031754  0.031754  0.000000      4.000000
  0.047630  0.031754  0.000000      8.000000
  0.063507  0.031754  0.000000      8.000000
  0.079384  0.031754  0.000000      8.000000
  0.095261  0.031754  0.000000      8.000000
  0.111138  0.031754  0.000000      8.000000
  0.127014  0.031754  0.000000      8.000000
  0.142891  0.031754  0.000000      8.000000
  0.047630  0.047630  0.000000      4.000000
  0.063507  0.047630  0.000000      8.000000
  0.079384  0.047630  0.000000      8.000000
  0.095261  0.047630  0.000000      8.000000
  0.111138  0.047630  0.000000      8.000000
  0.127014  0.047630  0.000000      8.000000
  0.142891  0.047630  0.000000      8.000000
  0.063507  0.063507  0.000000      4.000000
  0.079384  0.063507  0.000000      8.000000
  0.095261  0.063507  0.000000      8.000000
  0.111138  0.063507  0.000000      8.000000
  0.127014  0.063507  0.000000      8.000000
  0.142891  0.063507  0.000000      8.000000
  0.079384  0.079384  0.000000      4.000000
  0.095261  0.079384  0.000000      8.000000
  0.111138  0.079384  0.000000      8.000000
  0.127014  0.079384  0.000000      8.000000
  0.142891  0.079384  0.000000      8.000000
  0.095261  0.095261  0.000000      4.000000
  0.111138  0.095261  0.000000      8.000000
  0.127014  0.095261  0.000000      8.000000
  0.142891  0.095261  0.000000      8.000000
  0.111138  0.111138  0.000000      4.000000
  0.127014  0.111138  0.000000      8.000000
  0.142891  0.111138  0.000000      8.000000
  0.127014  0.127014  0.000000      4.000000
  0.142891  0.127014  0.000000      8.000000
  0.142891  0.142891  0.000000      4.000000
 


--------------------------------------------------------------------------------------------------------




 Dimension of arrays:
   k-points           NKPTS =     55   k-points in BZ     NKDIM =     55   number of bands    NBANDS=     18
   number of dos      NEDOS =    301   number of ions     NIONS =      6
   non local maximal  LDIM  =      4   non local SUM 2l+1 LMDIM =      8
   total plane-waves  NPLWV =  45360
   max r-space proj   IRMAX =      1   max aug-charges    IRDMAX=   2305
   dimension x,y,z NGX =    18 NGY =   18 NGZ =  140
   dimension x,y,z NGXF=    36 NGYF=   36 NGZF=  280
   support grid    NGXF=    36 NGYF=   36 NGZF=  280
   ions per type =               2   4
 NGX,Y,Z   is equivalent  to a cutoff of   9.03,  9.03,  9.65 a.u.
 NGXF,Y,Z  is equivalent  to a cutoff of  18.05, 18.05, 19.29 a.u.


 I would recommend the setting:
   dimension x,y,z NGX =    18 NGY =   18 NGZ =  132
 SYSTEM =  unknown system                          
 POSCAR =  C2 N4                                   

 Startparameter for this run:
   NWRITE =      2    write-flag & timer
   PREC   = normal    normal or accurate (medium, high low for compatibility)
   ISTART =      1    job   : 0-new  1-cont  2-samecut
   ICHARG =      2    charge: 1-file 2-atom 10-const
   ISPIN  =      1    spin polarized calculation?
   LNONCOLLINEAR =      F non collinear calculations
   LSORBIT =      F    spin-orbit coupling
   INIWAV =      1    electr: 0-lowe 1-rand  2-diag
   LASPH  =      F    aspherical Exc in radial PAW
   METAGGA=      F    non-selfconsistent MetaGGA calc.

 Electronic Relaxation 1
   ENCUT  =  500.0 eV  36.75 Ry    6.06 a.u.   6.04  6.04 43.99*2*pi/ulx,y,z
   ENINI  =  500.0     initial cutoff
   ENAUG  =  644.9 eV  augmentation charge cutoff
   NELM   =    100;   NELMIN=  6; NELMDL= -5     # of ELM steps 
   EDIFF  = 0.1E-04   stopping-criterion for ELM
   LREAL  =      F    real-space projection
   NLSPLINE    = F    spline interpolate recip. space projectors
   LCOMPAT=      F    compatible to vasp.4.4
   GGA_COMPAT  = T    GGA compatible to vasp.4.4-vasp.4.6
   LMAXPAW     = -100 max onsite density
   LMAXMIX     =    2 max onsite mixed and CHGCAR
   VOSKOWN=      0    Vosko Wilk Nusair interpolation
   ROPT   =    0.00000   0.00000
 Ionic relaxation
   EDIFFG = -.1E-01   stopping-criterion for IOM
   NSW    =      0    number of steps for IOM
   NBLOCK =      1;   KBLOCK =      1    inner block; outer block 
   IBRION =     -1    ionic relax: 0-MD 1-quasi-New 2-CG
   NFREE  =      1    steps in history (QN), initial steepest desc. (CG)
   ISIF   =      2    stress and relaxation
   IWAVPR =     10    prediction:  0-non 1-charg 2-wave 3-comb
   ISYM   =      2    0-nonsym 1-usesym 2-fastsym
   LCORR  =      T    Harris-Foulkes like correction to forces

   POTIM  = 0.2500    time-step for ionic-motion
   TEIN   =    0.0    initial temperature
   TEBEG  =    0.0;   TEEND  =   0.0 temperature during run
   SMASS  =  -3.00    Nose mass-parameter (am)
   estimated Nose-frequenzy (Omega)   =  0.10E-29 period in steps =****** mass=  -0.251E-27a.u.
   SCALEE = 1.0000    scale energy and forces
   NPACO  =    256;   APACO  = 16.0  distance and # of slots for P.C.
   PSTRESS=    0.0 pullay stress

  Mass of Ions in am
   POMASS =  12.01 14.00
  Ionic Valenz
   ZVAL   =   4.00  5.00
  Atomic Wigner-Seitz radii
   RWIGS  =  -1.00 -1.00
  virtual crystal weights 
   VCA    =   1.00  1.00
   NELECT =      28.0000    total number of electrons
   NUPDOWN=      -1.0000    fix difference up-down

 DOS related values:
   EMIN   =  10.00;   EMAX   =-10.00  energy-range for DOS
   EFERMI =   0.00
   ISMEAR =     0;   SIGMA  =   0.05  broadening in eV -4-tet -1-fermi 0-gaus

 Electronic relaxation 2 (details)
   IALGO  =     38    algorithm
   LDIAG  =      T    sub-space diagonalisation (order eigenvalues)
   LSUBROT=      F    optimize rotation matrix (better conditioning)
   TURBO    =      0    0=normal 1=particle mesh
   IRESTART =      0    0=no restart 2=restart with 2 vectors
   NREBOOT  =      0    no. of reboots
   NMIN     =      0    reboot dimension
   EREF     =   0.00    reference energy to select bands
   IMIX   =      4    mixing-type and parameters
     AMIX     =   0.40;   BMIX     =  1.00
     AMIX_MAG =   1.60;   BMIX_MAG =  1.00
     AMIN     =   0.10
     WC   =   100.;   INIMIX=   1;  MIXPRE=   1;  MAXMIX= -45

 Intra band minimization:
   WEIMIN = 0.0000     energy-eigenvalue tresh-hold
   EBREAK =  0.14E-06  absolut break condition
   DEPER  =   0.30     relativ break condition  

   TIME   =   0.40     timestep for ELM

  volume/ion in A,a.u.               =      44.19       298.20
  Fermi-wavevector in a.u.,A,eV,Ry     =   0.773821  1.462309  8.147146  0.598798
  Thomas-Fermi vector in A             =   1.875746
 
 Write flags
   LWAVE  =      T    write WAVECAR
   LCHARG =      T    write CHGCAR
   LVTOT  =      F    write LOCPOT, total local potential
   LVHAR  =      F    write LOCPOT, Hartree potential only
   LELF   =      T    write electronic localiz. function (ELF)
   LORBIT =     10    0 simple, 1 ext, 2 COOP (PROOUT)


 Dipole corrections
   LMONO  =      F    monopole corrections only (constant potential shift)
   LDIPOL =      F    correct potential (dipole corrections)
   IDIPOL =      0    1-x, 2-y, 3-z, 4-all directions 
   EPSILON=  1.0000000 bulk dielectric constant

 Exchange correlation treatment:
   GGA     =    --    GGA type
   LEXCH   =     8    internal setting for exchange type
   VOSKOWN=      0    Vosko Wilk Nusair interpolation
   LHFCALC =     F    Hartree Fock is set to
   LHFONE  =     F    Hartree Fock one center treatment
   AEXX    =    0.0000 exact exchange contribution

 Linear response parameters
   LEPSILON=     F    determine dielectric tensor
   LRPA    =     F    only Hartree local field effects (RPA)
   LNABLA  =     F    use nabla operator in PAW spheres
   LVEL    =     F    velocity operator in full k-point grid
   LINTERFAST=   F  fast interpolation
   KINTER  =     0    interpolate to denser k-point grid
   CSHIFT  =0.1000    complex shift for real part using Kramers Kronig
   OMEGAMAX=  -1.0    maximum frequency
   DEG_THRESHOLD= 0.2000000E-02 threshold for treating states as degnerate
   RTIME   =    0.100 relaxation time in fs

 Orbital magnetization related:
   ORBITALMAG=     F  switch on orbital magnetization
   LCHIMAG   =     F  perturbation theory with respect to B field
   DQ        =  0.001000  dq finite difference perturbation B field



--------------------------------------------------------------------------------------------------------


 Static calculation
 charge density and potential will be updated during run
 non-spin polarized calculation
 Variant of blocked Davidson
 Davidson routine will perform the subspace rotation
 perform sub-space diagonalisation
    after iterative eigenvector-optimisation
 modified Broyden-mixing scheme, WC =      100.0
 initial mixing is a Kerker type mixing with AMIX =  0.4000 and BMIX =      1.0000
 Hartree-type preconditioning will be used
 using additional bands            4
 reciprocal scheme for non local part
 use partial core corrections
 calculate Harris-corrections to forces 
   (improved forces if not selfconsistent)
 use gradient corrections 
 use of overlap-Matrix (Vanderbilt PP)
 Gauss-broadening in eV      SIGMA  =   0.05


--------------------------------------------------------------------------------------------------------


  energy-cutoff  :      500.00
  volume of cell :      265.13
      direct lattice vectors                 reciprocal lattice vectors
     3.315000000  0.000000000  0.000000000     0.301659125  0.000000000  0.000000000
     0.000000000  3.315000000  0.000000000     0.000000000  0.301659125  0.000000000
     0.000000000  0.000000000 24.126512000     0.000000000  0.000000000  0.041448179

  length of vectors
     3.315000000  3.315000000 24.126512000     0.301659125  0.301659125  0.041448179


 
 old parameters found on file WAVECAR:
  energy-cutoff  :      500.00
  volume of cell :      265.13
      direct lattice vectors                 reciprocal lattice vectors
     3.315000000  0.000000000  0.000000000     0.301659125  0.000000000  0.000000000
     0.000000000  3.315000000  0.000000000     0.000000000  0.301659125  0.000000000
     0.000000000  0.000000000 24.126512000     0.000000000  0.000000000  0.041448179

  length of vectors

 
 k-points in units of 2pi/SCALE and weight: Auto generated by PyGec                 
   0.00000000  0.00000000  0.00000000       0.003
   0.01587680  0.00000000  0.00000000       0.011
   0.03175359  0.00000000  0.00000000       0.011
   0.04763039  0.00000000  0.00000000       0.011
   0.06350718  0.00000000  0.00000000       0.011
   0.07938398  0.00000000  0.00000000       0.011
   0.09526078  0.00000000  0.00000000       0.011
   0.11113757  0.00000000  0.00000000       0.011
   0.12701437  0.00000000  0.00000000       0.011
   0.14289116  0.00000000  0.00000000       0.011
   0.01587680  0.01587680  0.00000000       0.011
   0.03175359  0.01587680  0.00000000       0.022
   0.04763039  0.01587680  0.00000000       0.022
   0.06350718  0.01587680  0.00000000       0.022
   0.07938398  0.01587680  0.00000000       0.022
   0.09526078  0.01587680  0.00000000       0.022
   0.11113757  0.01587680  0.00000000       0.022
   0.12701437  0.01587680  0.00000000       0.022
   0.14289116  0.01587680  0.00000000       0.022
   0.03175359  0.03175359  0.00000000       0.011
   0.04763039  0.03175359  0.00000000       0.022
   0.06350718  0.03175359  0.00000000       0.022
   0.07938398  0.03175359  0.00000000       0.022
   0.09526078  0.03175359  0.00000000       0.022
   0.11113757  0.03175359  0.00000000       0.022
   0.12701437  0.03175359  0.00000000       0.022
   0.14289116  0.03175359  0.00000000       0.022
   0.04763039  0.04763039  0.00000000       0.011
   0.06350718  0.04763039  0.00000000       0.022
   0.07938398  0.04763039  0.00000000       0.022
   0.09526078  0.04763039  0.00000000       0.022
   0.11113757  0.04763039  0.00000000       0.022
   0.12701437  0.04763039  0.00000000       0.022
   0.14289116  0.04763039  0.00000000       0.022
   0.06350718  0.06350718  0.00000000       0.011
   0.07938398  0.06350718  0.00000000       0.022
   0.09526078  0.06350718  0.00000000       0.022
   0.11113757  0.06350718  0.00000000       0.022
   0.12701437  0.06350718  0.00000000       0.022
   0.14289116  0.06350718  0.00000000       0.022
   0.07938398  0.07938398  0.00000000       0.011
   0.09526078  0.07938398  0.00000000       0.022
   0.11113757  0.07938398  0.00000000       0.022
   0.12701437  0.07938398  0.00000000       0.022
   0.14289116  0.07938398  0.00000000       0.022
   0.09526078  0.09526078  0.00000000       0.011
   0.11113757  0.09526078  0.00000000       0.022
   0.12701437  0.09526078  0.00000000       0.022
   0.14289116  0.09526078  0.00000000       0.022
   0.11113757  0.11113757  0.00000000       0.011
   0.12701437  0.11113757  0.00000000       0.022
   0.14289116  0.11113757  0.00000000       0.022
   0.12701437  0.12701437  0.00000000       0.011
   0.14289116  0.12701437  0.00000000       0.022
   0.14289116  0.14289116  0.00000000       0.011
 
 k-points in reciprocal lattice and weights: Auto generated by PyGec                 
   0.00000000  0.00000000  0.00000000       0.003
   0.05263158  0.00000000  0.00000000       0.011
   0.10526316  0.00000000  0.00000000       0.011
   0.15789474  0.00000000  0.00000000       0.011
   0.21052632  0.00000000  0.00000000       0.011
   0.26315789  0.00000000  0.00000000       0.011
   0.31578947  0.00000000  0.00000000       0.011
   0.36842105  0.00000000  0.00000000       0.011
   0.42105263  0.00000000  0.00000000       0.011
   0.47368421  0.00000000  0.00000000       0.011
   0.05263158  0.05263158  0.00000000       0.011
   0.10526316  0.05263158  0.00000000       0.022
   0.15789474  0.05263158  0.00000000       0.022
   0.21052632  0.05263158  0.00000000       0.022
   0.26315789  0.05263158  0.00000000       0.022
   0.31578947  0.05263158  0.00000000       0.022
   0.36842105  0.05263158  0.00000000       0.022
   0.42105263  0.05263158  0.00000000       0.022
   0.47368421  0.05263158  0.00000000       0.022
   0.10526316  0.10526316  0.00000000       0.011
   0.15789474  0.10526316  0.00000000       0.022
   0.21052632  0.10526316  0.00000000       0.022
   0.26315789  0.10526316  0.00000000       0.022
   0.31578947  0.10526316  0.00000000       0.022
   0.36842105  0.10526316  0.00000000       0.022
   0.42105263  0.10526316  0.00000000       0.022
   0.47368421  0.10526316  0.00000000       0.022
   0.15789474  0.15789474  0.00000000       0.011
   0.21052632  0.15789474  0.00000000       0.022
   0.26315789  0.15789474  0.00000000       0.022
   0.31578947  0.15789474  0.00000000       0.022
   0.36842105  0.15789474  0.00000000       0.022
   0.42105263  0.15789474  0.00000000       0.022
   0.47368421  0.15789474  0.00000000       0.022
   0.21052632  0.21052632  0.00000000       0.011
   0.26315789  0.21052632  0.00000000       0.022
   0.31578947  0.21052632  0.00000000       0.022
   0.36842105  0.21052632  0.00000000       0.022
   0.42105263  0.21052632  0.00000000       0.022
   0.47368421  0.21052632  0.00000000       0.022
   0.26315789  0.26315789  0.00000000       0.011
   0.31578947  0.26315789  0.00000000       0.022
   0.36842105  0.26315789  0.00000000       0.022
   0.42105263  0.26315789  0.00000000       0.022
   0.47368421  0.26315789  0.00000000       0.022
   0.31578947  0.31578947  0.00000000       0.011
   0.36842105  0.31578947  0.00000000       0.022
   0.42105263  0.31578947  0.00000000       0.022
   0.47368421  0.31578947  0.00000000       0.022
   0.36842105  0.36842105  0.00000000       0.011
   0.42105263  0.36842105  0.00000000       0.022
   0.47368421  0.36842105  0.00000000       0.022
   0.42105263  0.42105263  0.00000000       0.011
   0.47368421  0.42105263  0.00000000       0.022
   0.47368421  0.47368421  0.00000000       0.011
 
 position of ions in fractional coordinates (direct lattice) 
   0.00000000  0.00000000  0.50000000
   0.50000000  0.50000000  0.50000000
   0.34555363  0.15444637  0.53165919
   0.15444637  0.65444637  0.46834081
   0.65444637  0.84555363  0.53165919
   0.84555363  0.34555363  0.46834081
 
 position of ions in cartesian coordinates  (Angst):
   0.00000000  0.00000000 12.06325600
   1.65750000  1.65750000 12.06325600
   1.14551029  0.51198971 12.82708174
   0.51198971  2.16948971 11.29943026
   2.16948971  2.80301029 12.82708174
   2.80301029  1.14551029 11.29943026
 


--------------------------------------------------------------------------------------------------------


 k-point  1 :   0.0000 0.0000 0.0000  plane waves:    6671
 k-point  2 :   0.0526 0.0000 0.0000  plane waves:    6700
 k-point  3 :   0.1053 0.0000 0.0000  plane waves:    6682
 k-point  4 :   0.1579 0.0000 0.0000  plane waves:    6708
 k-point  5 :   0.2105 0.0000 0.0000  plane waves:    6718
 k-point  6 :   0.2632 0.0000 0.0000  plane waves:    6690
 k-point  7 :   0.3158 0.0000 0.0000  plane waves:    6696
 k-point  8 :   0.3684 0.0000 0.0000  plane waves:    6702
 k-point  9 :   0.4211 0.0000 0.0000  plane waves:    6694
 k-point 10 :   0.4737 0.0000 0.0000  plane waves:    6700
 k-point 11 :   0.0526 0.0526 0.0000  plane waves:    6687
 k-point 12 :   0.1053 0.0526 0.0000  plane waves:    6698
 k-point 13 :   0.1579 0.0526 0.0000  plane waves:    6714
 k-point 14 :   0.2105 0.0526 0.0000  plane waves:    6712
 k-point 15 :   0.2632 0.0526 0.0000  plane waves:    6701
 k-point 16 :   0.3158 0.0526 0.0000  plane waves:    6682
 k-point 17 :   0.3684 0.0526 0.0000  plane waves:    6695
 k-point 18 :   0.4211 0.0526 0.0000  plane waves:    6705
 k-point 19 :   0.4737 0.0526 0.0000  plane waves:    6695
 k-point 20 :   0.1053 0.1053 0.0000  plane waves:    6721
 k-point 21 :   0.1579 0.1053 0.0000  plane waves:    6719
 k-point 22 :   0.2105 0.1053 0.0000  plane waves:    6714
 k-point 23 :   0.2632 0.1053 0.0000  plane waves:    6704
 k-point 24 :   0.3158 0.1053 0.0000  plane waves:    6699
 k-point 25 :   0.3684 0.1053 0.0000  plane waves:    6709
 k-point 26 :   0.4211 0.1053 0.0000  plane waves:    6706
 k-point 27 :   0.4737 0.1053 0.0000  plane waves:    6722
 k-point 28 :   0.1579 0.1579 0.0000  plane waves:    6709
 k-point 29 :   0.2105 0.1579 0.0000  plane waves:    6713
 k-point 30 :   0.2632 0.1579 0.0000  plane waves:    6716
 k-point 31 :   0.3158 0.1579 0.0000  plane waves:    6716
 k-point 32 :   0.3684 0.1579 0.0000  plane waves:    6721
 k-point 33 :   0.4211 0.1579 0.0000  plane waves:    6723
 k-point 34 :   0.4737 0.1579 0.0000  plane waves:    6736
 k-point 35 :   0.2105 0.2105 0.0000  plane waves:    6731
 k-point 36 :   0.2632 0.2105 0.0000  plane waves:    6718
 k-point 37 :   0.3158 0.2105 0.0000  plane waves:    6739
 k-point 38 :   0.3684 0.2105 0.0000  plane waves:    6739
 k-point 39 :   0.4211 0.2105 0.0000  plane waves:    6754
 k-point 40 :   0.4737 0.2105 0.0000  plane waves:    6758
 k-point 41 :   0.2632 0.2632 0.0000  plane waves:    6749
 k-point 42 :   0.3158 0.2632 0.0000  plane waves:    6750
 k-point 43 :   0.3684 0.2632 0.0000  plane waves:    6762
 k-point 44 :   0.4211 0.2632 0.0000  plane waves:    6770
 k-point 45 :   0.4737 0.2632 0.0000  plane waves:    6772
 k-point 46 :   0.3158 0.3158 0.0000  plane waves:    6768
 k-point 47 :   0.3684 0.3158 0.0000  plane waves:    6778
 k-point 48 :   0.4211 0.3158 0.0000  plane waves:    6778
 k-point 49 :   0.4737 0.3158 0.0000  plane waves:    6780
 k-point 50 :   0.3684 0.3684 0.0000  plane waves:    6798
 k-point 51 :   0.4211 0.3684 0.0000  plane waves:    6782
 k-point 52 :   0.4737 0.3684 0.0000  plane waves:    6786
 k-point 53 :   0.4211 0.4211 0.0000  plane waves:    6792
 k-point 54 :   0.4737 0.4211 0.0000  plane waves:    6780
 k-point 55 :   0.4737 0.4737 0.0000  plane waves:    6754

 maximum and minimum number of plane-waves per node :       863      814

 maximum number of plane-waves:      6798
 maximum index in each direction: 
   IXMAX=    6   IYMAX=    6   IZMAX=   43
   IXMIN=   -6   IYMIN=   -6   IZMIN=  -43

 WARNING: aliasing errors must be expected set NGX to  26 to avoid them
 WARNING: aliasing errors must be expected set NGY to  26 to avoid them
 WARNING: aliasing errors must be expected set NGZ to 174 to avoid them
 aliasing errors are usually negligible using standard VASP settings
 and one can safely disregard these warnings

 parallel 3D FFT for wavefunctions:
    minimum data exchange during FFTs selected (reduces bandwidth)
 parallel 3D FFT for charge:
    minimum data exchange during FFTs selected (reduces bandwidth)


 total amount of memory used by VASP on root node    39909. kBytes
========================================================================

   base      :      30000. kBytes
   nonl-proj :       6165. kBytes
   fftplans  :        559. kBytes
   grid      :        870. kBytes
   one-center:          3. kBytes
   wavefun   :       2312. kBytes
 
     INWAV:  cpu time    0.1729: real time    0.1735
 Broyden mixing: mesh for mixing (old mesh)
   NGX = 13   NGY = 13   NGZ = 87
  (NGX  = 36   NGY  = 36   NGZ  =280)
  gives a total of  14703 points

 initial charge density was supplied:
 charge density of overlapping atoms calculated
 number of electron      28.0000000 magnetization 
 keeping initial charge density in first step


--------------------------------------------------------------------------------------------------------


 Maximum index for augmentation-charges          195 (set IRDMAX)


--------------------------------------------------------------------------------------------------------


 First call to EWALD:  gamma=   0.276
 Maximum number of real-space cells 5x 5x 1
 Maximum number of reciprocal cells 2x 2x 9

 FEWALD executed in parallel
    FEWALD:  cpu time    0.0013: real time    0.0013


----------------------------------------- Iteration    1(   1)  ---------------------------------------


    POTLOK:  cpu time    0.0087: real time    0.0098
    SETDIJ:  cpu time    0.0014: real time    0.0014
     EDDAV:  cpu time    0.4359: real time    0.4376
       DOS:  cpu time    0.0005: real time    0.0005
    --------------------------------------------
      LOOP:  cpu time    0.4482: real time    0.4510

 eigenvalue-minimisations  :  2508
 total energy-change (2. order) :-0.5002424E+02  (-0.6623180E+00)
 number of electron      28.0000000 magnetization 
 augmentation part       28.0000000 magnetization 

 Free energy of the ion-electron system (eV)
  ---------------------------------------------------
  alpha Z        PSCENC =        13.44073302
  Ewald energy   TEWEN  =      9193.65692876
  -Hartree energ DENC   =    -10269.07522591
  -exchange      EXHF   =         0.00000000
  -V(xc)+E(xc)   XCENC  =       107.82048975
  PAW double counting   =      1036.77501921    -1042.67776719
  entropy T*S    EENTRO =        -0.00000000
  eigenvalues    EBANDS =      -442.40065751
  atomic energy  EATOM  =      1352.43624119
  Solvation  Ediel_sol  =         0.00000000
  ---------------------------------------------------
  free energy    TOTEN  =       -50.02423868 eV

  energy without entropy =      -50.02423868  energy(sigma->0) =      -50.02423868


--------------------------------------------------------------------------------------------------------




----------------------------------------- Iteration    1(   2)  ---------------------------------------


     EDDAV:  cpu time    0.3898: real time    0.3898
       DOS:  cpu time    0.0002: real time    0.0002
    --------------------------------------------
      LOOP:  cpu time    0.3905: real time    0.3930

 eigenvalue-minimisations  :  2466
 total energy-change (2. order) :-0.1906079E-01  (-0.1906059E-01)
 number of electron      28.0000000 magnetization 
 augmentation part       28.0000000 magnetization 

 Free energy of the ion-electron system (eV)
  ---------------------------------------------------
  alpha Z        PSCENC =        13.44073302
  Ewald energy   TEWEN  =      9193.65692876
  -Hartree energ DENC   =    -10269.07522591
  -exchange      EXHF   =         0.00000000
  -V(xc)+E(xc)   XCENC  =       107.82048975
  PAW double counting   =      1036.77501921    -1042.67776719
  entropy T*S    EENTRO =        -0.00000000
  eigenvalues    EBANDS =      -442.41971829
  atomic energy  EATOM  =      1352.43624119
  Solvation  Ediel_sol  =         0.00000000
  ---------------------------------------------------
  free energy    TOTEN  =       -50.04329947 eV

  energy without entropy =      -50.04329947  energy(sigma->0) =      -50.04329947


--------------------------------------------------------------------------------------------------------




----------------------------------------- Iteration    1(   3)  ---------------------------------------


     EDDAV:  cpu time    0.4208: real time    0.4208
       DOS:  cpu time    0.0002: real time    0.0002
    --------------------------------------------
      LOOP:  cpu time    0.4213: real time    0.4221

 eigenvalue-minimisations  :  2862
 total energy-change (2. order) :-0.3234169E-03  (-0.3234147E-03)
 number of electron      28.0000000 magnetization 
 augmentation part       28.0000000 magnetization 

 Free energy of the ion-electron system (eV)
  ---------------------------------------------------
  alpha Z        PSCENC =        13.44073302
  Ewald energy   TEWEN  =      9193.65692876
  -Hartree energ DENC   =    -10269.07522591
  -exchange      EXHF   =         0.00000000
  -V(xc)+E(xc)   XCENC  =       107.82048975
  PAW double counting   =      1036.77501921    -1042.67776719
  entropy T*S    EENTRO =        -0.00000000
  eigenvalues    EBANDS =      -442.42004171
  atomic energy  EATOM  =      1352.43624119
  Solvation  Ediel_sol  =         0.00000000
  ---------------------------------------------------
  free energy    TOTEN  =       -50.04362289 eV

  energy without entropy =      -50.04362289  energy(sigma->0) =      -50.04362289


--------------------------------------------------------------------------------------------------------




----------------------------------------- Iteration    1(   4)  ---------------------------------------


     EDDAV:  cpu time    0.4049: real time    0.4049
       DOS:  cpu time    0.0002: real time    0.0002
    --------------------------------------------
      LOOP:  cpu time    0.4054: real time    0.4078

 eigenvalue-minimisations  :  2730
 total energy-change (2. order) :-0.9305708E-05  (-0.9305410E-05)
 number of electron      28.0000000 magnetization 
 augmentation part       28.0000000 magnetization 

 Free energy of the ion-electron system (eV)
  ---------------------------------------------------
  alpha Z        PSCENC =        13.44073302
  Ewald energy   TEWEN  =      9193.65692876
  -Hartree energ DENC   =    -10269.07522591
  -exchange      EXHF   =         0.00000000
  -V(xc)+E(xc)   XCENC  =       107.82048975
  PAW double counting   =      1036.77501921    -1042.67776719
  entropy T*S    EENTRO =        -0.00000000
  eigenvalues    EBANDS =      -442.42005102
  atomic energy  EATOM  =      1352.43624119
  Solvation  Ediel_sol  =         0.00000000
  ---------------------------------------------------
  free energy    TOTEN  =       -50.04363219 eV

  energy without entropy =      -50.04363219  energy(sigma->0) =      -50.04363219


--------------------------------------------------------------------------------------------------------




----------------------------------------- Iteration    1(   5)  ---------------------------------------


     EDDAV:  cpu time    0.3256: real time    0.3256
       DOS:  cpu time    0.0002: real time    0.0002
    CHARGE:  cpu time    0.0184: real time    0.0185
    MIXING:  cpu time    0.0014: real time    0.0015
    --------------------------------------------
      LOOP:  cpu time    0.3460: real time    0.3486

 eigenvalue-minimisations  :  1932
 total energy-change (2. order) :-0.1971603E-06  (-0.1971614E-06)
 number of electron      28.0000029 magnetization 
 augmentation part        1.1224122 magnetization 

 Broyden mixing:
  rms(total) = 0.11828E+01    rms(broyden)= 0.11816E+01
  rms(prec ) = 0.12158E+01
  weight for this iteration     100.00

 Free energy of the ion-electron system (eV)
  ---------------------------------------------------
  alpha Z        PSCENC =        13.44073302
  Ewald energy   TEWEN  =      9193.65692876
  -Hartree energ DENC   =    -10269.07522591
  -exchange      EXHF   =         0.00000000
  -V(xc)+E(xc)   XCENC  =       107.82048975
  PAW double counting   =      1036.77501921    -1042.67776719
  entropy T*S    EENTRO =        -0.00000000
  eigenvalues    EBANDS =      -442.42005121
  atomic energy  EATOM  =      1352.43624119
  Solvation  Ediel_sol  =         0.00000000
  ---------------------------------------------------
  free energy    TOTEN  =       -50.04363239 eV

  energy without entropy =      -50.04363239  energy(sigma->0) =      -50.04363239


--------------------------------------------------------------------------------------------------------




----------------------------------------- Iteration    1(   6)  ---------------------------------------


    POTLOK:  cpu time    0.0046: real time    0.0060
    SETDIJ:  cpu time    0.0011: real time    0.0011
     EDDAV:  cpu time    0.3823: real time    0.3823
       DOS:  cpu time    0.0002: real time    0.0002
    CHARGE:  cpu time    0.0171: real time    0.0171
    MIXING:  cpu time    0.0006: real time    0.0006
    --------------------------------------------
      LOOP:  cpu time    0.4062: real time    0.4102

 eigenvalue-minimisations  :  2556
 total energy-change (2. order) : 0.1689986E+01  (-0.3783686E+00)
 number of electron      28.0000025 magnetization 
 augmentation part        1.0378503 magnetization 

 Broyden mixing:
  rms(total) = 0.63364E+00    rms(broyden)= 0.63362E+00
  rms(prec ) = 0.64529E+00
  weight for this iteration     100.00

 eigenvalues of (default mixing * dielectric matrix)
  average eigenvalue GAMMA=   1.6914
  1.6914

 Free energy of the ion-electron system (eV)
  ---------------------------------------------------
  alpha Z        PSCENC =        13.44073302
  Ewald energy   TEWEN  =      9193.65692876
  -Hartree energ DENC   =    -10286.20646756
  -exchange      EXHF   =         0.00000000
  -V(xc)+E(xc)   XCENC  =       109.29653469
  PAW double counting   =      1590.02544712    -1596.40047042
  entropy T*S    EENTRO =        -0.00000000
  eigenvalues    EBANDS =      -424.60259307
  atomic energy  EATOM  =      1352.43624119
  Solvation  Ediel_sol  =         0.00000000
  ---------------------------------------------------
  free energy    TOTEN  =       -48.35364627 eV

  energy without entropy =      -48.35364627  energy(sigma->0) =      -48.35364627


--------------------------------------------------------------------------------------------------------




----------------------------------------- Iteration    1(   7)  ---------------------------------------


    POTLOK:  cpu time    0.0045: real time    0.0045
    SETDIJ:  cpu time    0.0010: real time    0.0010
     EDDAV:  cpu time    0.3951: real time    0.3951
       DOS:  cpu time    0.0003: real time    0.0003
    CHARGE:  cpu time    0.0173: real time    0.0173
    MIXING:  cpu time    0.0003: real time    0.0003
    --------------------------------------------
      LOOP:  cpu time    0.4189: real time    0.4213

 eigenvalue-minimisations  :  2514
 total energy-change (2. order) : 0.2722405E+00  (-0.7625619E-01)
 number of electron      28.0000025 magnetization 
 augmentation part        1.0224155 magnetization 

 Broyden mixing:
  rms(total) = 0.23533E+00    rms(broyden)= 0.23532E+00
  rms(prec ) = 0.23782E+00
  weight for this iteration     100.00

 eigenvalues of (default mixing * dielectric matrix)
  average eigenvalue GAMMA=   1.7635
  1.1488  2.3782

 Free energy of the ion-electron system (eV)
  ---------------------------------------------------
  alpha Z        PSCENC =        13.44073302
  Ewald energy   TEWEN  =      9193.65692876
  -Hartree energ DENC   =    -10298.81860468
  -exchange      EXHF   =         0.00000000
  -V(xc)+E(xc)   XCENC  =       110.24040073
  PAW double counting   =      2280.22274142    -2286.95299321
  entropy T*S    EENTRO =        -0.00000000
  eigenvalues    EBANDS =      -412.30685298
  atomic energy  EATOM  =      1352.43624119
  Solvation  Ediel_sol  =         0.00000000
  ---------------------------------------------------
  free energy    TOTEN  =       -48.08140576 eV

  energy without entropy =      -48.08140576  energy(sigma->0) =      -48.08140576


--------------------------------------------------------------------------------------------------------




----------------------------------------- Iteration    1(   8)  ---------------------------------------


    POTLOK:  cpu time    0.0046: real time    0.0046
    SETDIJ:  cpu time    0.0012: real time    0.0012
     EDDAV:  cpu time    0.3879: real time    0.3879
       DOS:  cpu time    0.0002: real time    0.0002
    CHARGE:  cpu time    0.0170: real time    0.0170
    MIXING:  cpu time    0.0003: real time    0.0003
    --------------------------------------------
      LOOP:  cpu time    0.4116: real time    0.4141

 eigenvalue-minimisations  :  2598
 total energy-change (2. order) :-0.1614619E-02  (-0.7912237E-02)
 number of electron      28.0000025 magnetization 
 augmentation part        1.0227490 magnetization 

 Broyden mixing:
  rms(total) = 0.60238E-01    rms(broyden)= 0.60235E-01
  rms(prec ) = 0.61240E-01
  weight for this iteration     100.00

 eigenvalues of (default mixing * dielectric matrix)
  average eigenvalue GAMMA=   1.7626
  1.1200  2.5069  1.6611

 Free energy of the ion-electron system (eV)
  ---------------------------------------------------
  alpha Z        PSCENC =        13.44073302
  Ewald energy   TEWEN  =      9193.65692876
  -Hartree energ DENC   =    -10302.34636858
  -exchange      EXHF   =         0.00000000
  -V(xc)+E(xc)   XCENC  =       110.51912929
  PAW double counting   =      2687.52329714    -2694.39050623
  entropy T*S    EENTRO =        -0.00000000
  eigenvalues    EBANDS =      -408.92247497
  atomic energy  EATOM  =      1352.43624119
  Solvation  Ediel_sol  =         0.00000000
  ---------------------------------------------------
  free energy    TOTEN  =       -48.08302037 eV

  energy without entropy =      -48.08302037  energy(sigma->0) =      -48.08302037


--------------------------------------------------------------------------------------------------------




----------------------------------------- Iteration    1(   9)  ---------------------------------------


    POTLOK:  cpu time    0.0045: real time    0.0045
    SETDIJ:  cpu time    0.0010: real time    0.0010
     EDDAV:  cpu time    0.3704: real time    0.3713
       DOS:  cpu time    0.0002: real time    0.0002
    CHARGE:  cpu time    0.0171: real time    0.0171
    MIXING:  cpu time    0.0003: real time    0.0003
    --------------------------------------------
      LOOP:  cpu time    0.3938: real time    0.3973

 eigenvalue-minimisations  :  2436
 total energy-change (2. order) : 0.1331202E-02  (-0.1207596E-02)
 number of electron      28.0000025 magnetization 
 augmentation part        1.0227972 magnetization 

 Broyden mixing:
  rms(total) = 0.10493E-01    rms(broyden)= 0.10492E-01
  rms(prec ) = 0.10729E-01
  weight for this iteration     100.00

 eigenvalues of (default mixing * dielectric matrix)
  average eigenvalue GAMMA=   1.6358
  2.5288  1.9154  1.0495  1.0495

 Free energy of the ion-electron system (eV)
  ---------------------------------------------------
  alpha Z        PSCENC =        13.44073302
  Ewald energy   TEWEN  =      9193.65692876
  -Hartree energ DENC   =    -10301.76195687
  -exchange      EXHF   =         0.00000000
  -V(xc)+E(xc)   XCENC  =       110.49291976
  PAW double counting   =      2753.01721943    -2759.87919932
  entropy T*S    EENTRO =        -0.00000000
  eigenvalues    EBANDS =      -409.48457514
  atomic energy  EATOM  =      1352.43624119
  Solvation  Ediel_sol  =         0.00000000
  ---------------------------------------------------
  free energy    TOTEN  =       -48.08168917 eV

  energy without entropy =      -48.08168917  energy(sigma->0) =      -48.08168917


--------------------------------------------------------------------------------------------------------




----------------------------------------- Iteration    1(  10)  ---------------------------------------


    POTLOK:  cpu time    0.0044: real time    0.0044
    SETDIJ:  cpu time    0.0010: real time    0.0010
     EDDAV:  cpu time    0.3829: real time    0.3829
       DOS:  cpu time    0.0002: real time    0.0002
    CHARGE:  cpu time    0.0169: real time    0.0169
    MIXING:  cpu time    0.0004: real time    0.0004
    --------------------------------------------
      LOOP:  cpu time    0.4062: real time    0.4087

 eigenvalue-minimisations  :  2550
 total energy-change (2. order) :-0.1836189E-03  (-0.8535284E-04)
 number of electron      28.0000025 magnetization 
 augmentation part        1.0233182 magnetization 

 Broyden mixing:
  rms(total) = 0.33441E-02    rms(broyden)= 0.33436E-02
  rms(prec ) = 0.35026E-02
  weight for this iteration     100.00

 eigenvalues of (default mixing * dielectric matrix)
  average eigenvalue GAMMA=   1.5940
  2.4669  1.0403  1.1008  1.6811  1.6811

 Free energy of the ion-electron system (eV)
  ---------------------------------------------------
  alpha Z        PSCENC =        13.44073302
  Ewald energy   TEWEN  =      9193.65692876
  -Hartree energ DENC   =    -10301.63572329
  -exchange      EXHF   =         0.00000000
  -V(xc)+E(xc)   XCENC  =       110.48158946
  PAW double counting   =      2759.31412150    -2766.17280833
  entropy T*S    EENTRO =        -0.00000000
  eigenvalues    EBANDS =      -409.60295509
  atomic energy  EATOM  =      1352.43624119
  Solvation  Ediel_sol  =         0.00000000
  ---------------------------------------------------
  free energy    TOTEN  =       -48.08187279 eV

  energy without entropy =      -48.08187279  energy(sigma->0) =      -48.08187279


--------------------------------------------------------------------------------------------------------




----------------------------------------- Iteration    1(  11)  ---------------------------------------


    POTLOK:  cpu time    0.0044: real time    0.0044
    SETDIJ:  cpu time    0.0010: real time    0.0010
     EDDAV:  cpu time    0.3657: real time    0.3656
       DOS:  cpu time    0.0002: real time    0.0002
    CHARGE:  cpu time    0.0177: real time    0.0177
    MIXING:  cpu time    0.0004: real time    0.0004
    --------------------------------------------
      LOOP:  cpu time    0.3898: real time    0.3923

 eigenvalue-minimisations  :  2370
 total energy-change (2. order) :-0.9486403E-04  (-0.7143000E-05)
 number of electron      28.0000025 magnetization 
 augmentation part        1.0233603 magnetization 

 Broyden mixing:
  rms(total) = 0.14693E-02    rms(broyden)= 0.14692E-02
  rms(prec ) = 0.16095E-02
  weight for this iteration     100.00

 eigenvalues of (default mixing * dielectric matrix)
  average eigenvalue GAMMA=   1.7067
  2.6195  2.6195  1.8419  1.0501  1.0547  1.0547

 Free energy of the ion-electron system (eV)
  ---------------------------------------------------
  alpha Z        PSCENC =        13.44073302
  Ewald energy   TEWEN  =      9193.65692876
  -Hartree energ DENC   =    -10301.73713608
  -exchange      EXHF   =         0.00000000
  -V(xc)+E(xc)   XCENC  =       110.48405326
  PAW double counting   =      2756.32146734    -2763.18024921
  entropy T*S    EENTRO =        -0.00000000
  eigenvalues    EBANDS =      -409.50400595
  atomic energy  EATOM  =      1352.43624119
  Solvation  Ediel_sol  =         0.00000000
  ---------------------------------------------------
  free energy    TOTEN  =       -48.08196766 eV

  energy without entropy =      -48.08196766  energy(sigma->0) =      -48.08196766


--------------------------------------------------------------------------------------------------------




----------------------------------------- Iteration    1(  12)  ---------------------------------------


    POTLOK:  cpu time    0.0044: real time    0.0044
    SETDIJ:  cpu time    0.0010: real time    0.0010
     EDDAV:  cpu time    0.3139: real time    0.3139
       DOS:  cpu time    0.0002: real time    0.0002
    CHARGE:  cpu time    0.0178: real time    0.0178
    MIXING:  cpu time    0.0004: real time    0.0004
    --------------------------------------------
      LOOP:  cpu time    0.3381: real time    0.3406

 eigenvalue-minimisations  :  1830
 total energy-change (2. order) :-0.8971420E-04  (-0.1882517E-05)
 number of electron      28.0000025 magnetization 
 augmentation part        1.0233078 magnetization 

 Broyden mixing:
  rms(total) = 0.35484E-03    rms(broyden)= 0.35481E-03
  rms(prec ) = 0.49930E-03
  weight for this iteration     100.00

 eigenvalues of (default mixing * dielectric matrix)
  average eigenvalue GAMMA=   1.6584
  2.8444  2.5056  1.7822  0.9689  1.2711  1.1183  1.1183

 Free energy of the ion-electron system (eV)
  ---------------------------------------------------
  alpha Z        PSCENC =        13.44073302
  Ewald energy   TEWEN  =      9193.65692876
  -Hartree energ DENC   =    -10301.85613606
  -exchange      EXHF   =         0.00000000
  -V(xc)+E(xc)   XCENC  =       110.48652850
  PAW double counting   =      2756.53730885    -2763.39581158
  entropy T*S    EENTRO =        -0.00000000
  eigenvalues    EBANDS =      -409.38785005
  atomic energy  EATOM  =      1352.43624119
  Solvation  Ediel_sol  =         0.00000000
  ---------------------------------------------------
  free energy    TOTEN  =       -48.08205737 eV

  energy without entropy =      -48.08205737  energy(sigma->0) =      -48.08205737


--------------------------------------------------------------------------------------------------------




----------------------------------------- Iteration    1(  13)  ---------------------------------------


    POTLOK:  cpu time    0.0044: real time    0.0044
    SETDIJ:  cpu time    0.0010: real time    0.0010
     EDDAV:  cpu time    0.3147: real time    0.3147
       DOS:  cpu time    0.0002: real time    0.0002
    CHARGE:  cpu time    0.0170: real time    0.0170
    MIXING:  cpu time    0.0004: real time    0.0004
    --------------------------------------------
      LOOP:  cpu time    0.3381: real time    0.3405

 eigenvalue-minimisations  :  1836
 total energy-change (2. order) :-0.3073271E-04  (-0.3837092E-06)
 number of electron      28.0000025 magnetization 
 augmentation part        1.0232883 magnetization 

 Broyden mixing:
  rms(total) = 0.24312E-03    rms(broyden)= 0.24310E-03
  rms(prec ) = 0.37862E-03
  weight for this iteration     100.00

 eigenvalues of (default mixing * dielectric matrix)
  average eigenvalue GAMMA=   1.7545
  3.0123  2.6775  2.3486  1.8184  0.9990  0.9990  1.0907  1.0907

 Free energy of the ion-electron system (eV)
  ---------------------------------------------------
  alpha Z        PSCENC =        13.44073302
  Ewald energy   TEWEN  =      9193.65692876
  -Hartree energ DENC   =    -10301.91647896
  -exchange      EXHF   =         0.00000000
  -V(xc)+E(xc)   XCENC  =       110.48682672
  PAW double counting   =      2756.91119386    -2763.76961320
  entropy T*S    EENTRO =        -0.00000000
  eigenvalues    EBANDS =      -409.32791949
  atomic energy  EATOM  =      1352.43624119
  Solvation  Ediel_sol  =         0.00000000
  ---------------------------------------------------
  free energy    TOTEN  =       -48.08208810 eV

  energy without entropy =      -48.08208810  energy(sigma->0) =      -48.08208810


--------------------------------------------------------------------------------------------------------




----------------------------------------- Iteration    1(  14)  ---------------------------------------


    POTLOK:  cpu time    0.0044: real time    0.0044
    SETDIJ:  cpu time    0.0010: real time    0.0010
     EDDAV:  cpu time    0.3036: real time    0.3036
       DOS:  cpu time    0.0002: real time    0.0002
    CHARGE:  cpu time    0.0170: real time    0.0170
    MIXING:  cpu time    0.0004: real time    0.0004
    --------------------------------------------
      LOOP:  cpu time    0.3270: real time    0.3296

 eigenvalue-minimisations  :  1740
 total energy-change (2. order) :-0.6471568E-04  (-0.2106174E-06)
 number of electron      28.0000025 magnetization 
 augmentation part        1.0233043 magnetization 

 Broyden mixing:
  rms(total) = 0.21796E-03    rms(broyden)= 0.21795E-03
  rms(prec ) = 0.26372E-03
  weight for this iteration     100.00

 eigenvalues of (default mixing * dielectric matrix)
  average eigenvalue GAMMA=   1.7285
  3.2787  2.7147  2.5163  1.8001  1.1241  1.1241  1.1493  0.9288  0.9202

 Free energy of the ion-electron system (eV)
  ---------------------------------------------------
  alpha Z        PSCENC =        13.44073302
  Ewald energy   TEWEN  =      9193.65692876
  -Hartree energ DENC   =    -10302.07656912
  -exchange      EXHF   =         0.00000000
  -V(xc)+E(xc)   XCENC  =       110.48689859
  PAW double counting   =      2756.50678332    -2763.36504784
  entropy T*S    EENTRO =        -0.00000000
  eigenvalues    EBANDS =      -409.16812075
  atomic energy  EATOM  =      1352.43624119
  Solvation  Ediel_sol  =         0.00000000
  ---------------------------------------------------
  free energy    TOTEN  =       -48.08215282 eV

  energy without entropy =      -48.08215282  energy(sigma->0) =      -48.08215282


--------------------------------------------------------------------------------------------------------




----------------------------------------- Iteration    1(  15)  ---------------------------------------


    POTLOK:  cpu time    0.0044: real time    0.0044
    SETDIJ:  cpu time    0.0010: real time    0.0010
     EDDAV:  cpu time    0.3154: real time    0.3154
       DOS:  cpu time    0.0002: real time    0.0002
    CHARGE:  cpu time    0.0170: real time    0.0170
    MIXING:  cpu time    0.0005: real time    0.0005
    --------------------------------------------
      LOOP:  cpu time    0.3389: real time    0.3415

 eigenvalue-minimisations  :  1848
 total energy-change (2. order) :-0.1507053E-04  (-0.4064681E-07)
 number of electron      28.0000025 magnetization 
 augmentation part        1.0233012 magnetization 

 Broyden mixing:
  rms(total) = 0.15586E-03    rms(broyden)= 0.15585E-03
  rms(prec ) = 0.18748E-03
  weight for this iteration     100.00

 eigenvalues of (default mixing * dielectric matrix)
  average eigenvalue GAMMA=   1.8865
  4.1114  2.6916  2.5119  2.5119  1.7904  1.1109  1.1109  1.0976  0.9639  0.9639

 Free energy of the ion-electron system (eV)
  ---------------------------------------------------
  alpha Z        PSCENC =        13.44073302
  Ewald energy   TEWEN  =      9193.65692876
  -Hartree energ DENC   =    -10302.13419700
  -exchange      EXHF   =         0.00000000
  -V(xc)+E(xc)   XCENC  =       110.48712894
  PAW double counting   =      2756.60892024    -2763.46726415
  entropy T*S    EENTRO =        -0.00000000
  eigenvalues    EBANDS =      -409.11065890
  atomic energy  EATOM  =      1352.43624119
  Solvation  Ediel_sol  =         0.00000000
  ---------------------------------------------------
  free energy    TOTEN  =       -48.08216789 eV

  energy without entropy =      -48.08216789  energy(sigma->0) =      -48.08216789


--------------------------------------------------------------------------------------------------------




----------------------------------------- Iteration    1(  16)  ---------------------------------------


    POTLOK:  cpu time    0.0044: real time    0.0044
    SETDIJ:  cpu time    0.0010: real time    0.0010
     EDDAV:  cpu time    0.3261: real time    0.3261
       DOS:  cpu time    0.0002: real time    0.0002
    CHARGE:  cpu time    0.0180: real time    0.0180
    MIXING:  cpu time    0.0005: real time    0.0005
    --------------------------------------------
      LOOP:  cpu time    0.3507: real time    0.3532

 eigenvalue-minimisations  :  1806
 total energy-change (2. order) :-0.1491544E-04  (-0.5514080E-07)
 number of electron      28.0000025 magnetization 
 augmentation part        1.0232865 magnetization 

 Broyden mixing:
  rms(total) = 0.55630E-04    rms(broyden)= 0.55571E-04
  rms(prec ) = 0.64562E-04
  weight for this iteration     100.00

 eigenvalues of (default mixing * dielectric matrix)
  average eigenvalue GAMMA=   2.0529
  6.3998  2.8822  2.6410  2.4275  1.7761  1.2710  1.1184  1.1184  0.9835  0.9835
  0.9804

 Free energy of the ion-electron system (eV)
  ---------------------------------------------------
  alpha Z        PSCENC =        13.44073302
  Ewald energy   TEWEN  =      9193.65692876
  -Hartree energ DENC   =    -10302.22608598
  -exchange      EXHF   =         0.00000000
  -V(xc)+E(xc)   XCENC  =       110.48741924
  PAW double counting   =      2756.62356221    -2763.48195547
  entropy T*S    EENTRO =        -0.00000000
  eigenvalues    EBANDS =      -409.01902578
  atomic energy  EATOM  =      1352.43624119
  Solvation  Ediel_sol  =         0.00000000
  ---------------------------------------------------
  free energy    TOTEN  =       -48.08218280 eV

  energy without entropy =      -48.08218280  energy(sigma->0) =      -48.08218280


--------------------------------------------------------------------------------------------------------




----------------------------------------- Iteration    1(  17)  ---------------------------------------


    POTLOK:  cpu time    0.0045: real time    0.0045
    SETDIJ:  cpu time    0.0010: real time    0.0013
     EDDAV:  cpu time    0.3119: real time    0.3119
       DOS:  cpu time    0.0002: real time    0.0002
    --------------------------------------------
      LOOP:  cpu time    0.3180: real time    0.3207

 eigenvalue-minimisations  :  1806
 total energy-change (2. order) :-0.1716272E-05  (-0.9868888E-08)
 number of electron      28.0000025 magnetization 
 augmentation part        1.0232865 magnetization 

 Free energy of the ion-electron system (eV)
  ---------------------------------------------------
  alpha Z        PSCENC =        13.44073302
  Ewald energy   TEWEN  =      9193.65692876
  -Hartree energ DENC   =    -10302.24488930
  -exchange      EXHF   =         0.00000000
  -V(xc)+E(xc)   XCENC  =       110.48740332
  PAW double counting   =      2756.68998170    -2763.54836550
  entropy T*S    EENTRO =        -0.00000000
  eigenvalues    EBANDS =      -409.00021771
  atomic energy  EATOM  =      1352.43624119
  Solvation  Ediel_sol  =         0.00000000
  ---------------------------------------------------
  free energy    TOTEN  =       -48.08218452 eV

  energy without entropy =      -48.08218452  energy(sigma->0) =      -48.08218452


--------------------------------------------------------------------------------------------------------




 average (electrostatic) potential at core
  the test charge radii are     0.6991  0.7089
  (the norm of the test charge is              1.0000)
       1 -62.1890       2 -62.1890       3 -74.7561       4 -74.7561       5 -74.7561
       6 -74.7561
 
 
 
 E-fermi :  -4.7453     XC(G=0):  -2.3797     alpha+bet : -2.0668


 k-point     1 :       0.0000    0.0000    0.0000
  band No.  band energies     occupation 
      1     -29.2197      2.00000
      2     -23.8490      2.00000
      3     -19.9095      2.00000
      4     -19.9095      2.00000
      5     -17.8352      2.00000
      6     -14.9703      2.00000
      7     -13.6689      2.00000
      8     -12.4279      2.00000
      9     -12.4279      2.00000
     10     -11.9544      2.00000
     11      -8.9739      2.00000
     12      -8.5400      2.00000
     13      -6.1538      2.00000
     14      -6.1538      2.00000
     15      -0.2075      0.00000
     16       0.0060      0.00000
     17       0.0060      0.00000
     18       1.6564      0.00000

 k-point     2 :       0.0526    0.0000    0.0000
  band No.  band energies     occupation 
      1     -29.1928      2.00000
      2     -23.8735      2.00000
      3     -20.0809      2.00000
      4     -19.8958      2.00000
      5     -17.6428      2.00000
      6     -15.0573      2.00000
      7     -13.6253      2.00000
      8     -12.5131      2.00000
      9     -12.4869      2.00000
     10     -11.8431      2.00000
     11      -8.9392      2.00000
     12      -8.5173      2.00000
     13      -6.1784      2.00000
     14      -6.1285      2.00000
     15      -0.1631      0.00000
     16      -0.0119      0.00000
     17       0.0658      0.00000
     18       1.7001      0.00000

 k-point     3 :       0.1053    0.0000    0.0000
  band No.  band energies     occupation 
      1     -29.1123      2.00000
      2     -23.9560      2.00000
      3     -20.4410      2.00000
      4     -19.8569      2.00000
      5     -17.2168      2.00000
      6     -15.2999      2.00000
      7     -13.5024      2.00000
      8     -12.6411      2.00000
      9     -12.6254      2.00000
     10     -11.6704      2.00000
     11      -8.8377      2.00000
     12      -8.4600      2.00000
     13      -6.2412      2.00000
     14      -6.0513      2.00000
     15      -0.0595      0.00000
     16      -0.0589      0.00000
     17       0.2649      0.00000
     18       1.8281      0.00000

 k-point     4 :       0.1579    0.0000    0.0000
  band No.  band energies     occupation 
      1     -28.9786      2.00000
      2     -24.1202      2.00000
      3     -20.7909      2.00000
      4     -19.7999      2.00000
      5     -16.7513      2.00000
      6     -15.6476      2.00000
      7     -13.3615      2.00000
      8     -12.7935      2.00000
      9     -12.6783      2.00000
     10     -11.5623      2.00000
     11      -8.6851      2.00000
     12      -8.3958      2.00000
     13      -6.3114      2.00000
     14      -5.9220      2.00000
     15      -0.1178      0.00000
     16       0.0827      0.00000
     17       0.5908      0.00000
     18       2.0332      0.00000

 k-point     5 :       0.2105    0.0000    0.0000
  band No.  band energies     occupation 
      1     -28.7923      2.00000
      2     -24.3883      2.00000
      3     -21.0287      2.00000
      4     -19.7385      2.00000
      5     -16.3505      2.00000
      6     -16.0343      2.00000
      7     -13.4139      2.00000
      8     -12.6934      2.00000
      9     -12.6798      2.00000
     10     -11.5395      2.00000
     11      -8.5169      2.00000
     12      -8.3581      2.00000
     13      -6.3447      2.00000
     14      -5.7474      2.00000
     15      -0.1681      0.00000
     16       0.2744      0.00000
     17       0.9685      0.00000
     18       2.3097      0.00000

 k-point     6 :       0.2632    0.0000    0.0000
  band No.  band energies     occupation 
      1     -28.5544      2.00000
      2     -24.7597      2.00000
      3     -21.1214      2.00000
      4     -19.6957      2.00000
      5     -16.3952      2.00000
      6     -16.0766      2.00000
      7     -13.6024      2.00000
      8     -12.6654      2.00000
      9     -12.3677      2.00000
     10     -11.5723      2.00000
     11      -8.3742      2.00000
     12      -8.3681      2.00000
     13      -6.3002      2.00000
     14      -5.5498      2.00000
     15      -0.1894      0.00000
     16       0.5249      0.00000
     17       1.2729      0.00000
     18       2.6540      0.00000

 k-point     7 :       0.3158    0.0000    0.0000
  band No.  band energies     occupation 
      1     -28.2665      2.00000
      2     -25.2067      2.00000
      3     -21.0814      2.00000
      4     -19.7032      2.00000
      5     -16.6704      2.00000
      6     -15.9727      2.00000
      7     -13.7257      2.00000
      8     -12.6828      2.00000
      9     -12.0034      2.00000
     10     -11.6062      2.00000
     11      -8.4165      2.00000
     12      -8.2852      2.00000
     13      -6.1637      2.00000
     14      -5.3680      2.00000
     15      -0.1647      0.00000
     16       0.8373      0.00000
     17       1.3486      0.00000
     18       3.0626      0.00000

 k-point     8 :       0.3684    0.0000    0.0000
  band No.  band energies     occupation 
      1     -27.9305      2.00000
      2     -25.6929      2.00000
      3     -20.9394      2.00000
      4     -19.7914      2.00000
      5     -16.8131      2.00000
      6     -16.0440      2.00000
      7     -13.7139      2.00000
      8     -12.7740      2.00000
      9     -11.6942      2.00000
     10     -11.5927      2.00000
     11      -8.4649      2.00000
     12      -8.2588      2.00000
     13      -5.9535      2.00000
     14      -5.2464      2.00000
     15      -0.0815      0.00000
     16       1.1403      0.00000
     17       1.2460      0.00000
     18       3.4852      0.00000

 k-point     9 :       0.4211    0.0000    0.0000
  band No.  band energies     occupation 
      1     -27.5495      2.00000
      2     -26.1879      2.00000
      3     -20.7268      2.00000
      4     -19.9676      2.00000
      5     -16.8081      2.00000
      6     -16.2358      2.00000
      7     -13.5828      2.00000
      8     -12.9422      2.00000
      9     -11.5289      2.00000
     10     -11.4971      2.00000
     11      -8.4733      2.00000
     12      -8.2886      2.00000
     13      -5.7083      2.00000
     14      -5.2197      2.00000
     15       0.0669      0.00000
     16       0.8639      0.00000
     17       1.6695      0.00000
     18       3.3855      0.00000

 k-point    10 :       0.4737    0.0000    0.0000
  band No.  band energies     occupation 
      1     -27.1276      2.00000
      2     -26.6707      2.00000
      3     -20.4726      2.00000
      4     -20.2075      2.00000
      5     -16.6785      2.00000
      6     -16.4695      2.00000
      7     -13.3826      2.00000
      8     -13.1571      2.00000
      9     -11.4552      2.00000
     10     -11.4271      2.00000
     11      -8.4296      2.00000
     12      -8.3559      2.00000
     13      -5.4752      2.00000
     14      -5.3006      2.00000
     15       0.2808      0.00000
     16       0.5535      0.00000
     17       2.1825      0.00000
     18       2.7609      0.00000

 k-point    11 :       0.0526    0.0526    0.0000
  band No.  band energies     occupation 
      1     -29.1659      2.00000
      2     -23.8958      2.00000
      3     -20.2176      2.00000
      4     -19.9002      2.00000
      5     -17.4682      2.00000
      6     -15.1442      2.00000
      7     -13.5867      2.00000
      8     -12.6360      2.00000
      9     -12.4720      2.00000
     10     -11.7566      2.00000
     11      -8.9097      2.00000
     12      -8.4978      2.00000
     13      -6.2289      2.00000
     14      -6.0741      2.00000
     15      -0.1480      0.00000
     16       0.0612      0.00000
     17       0.0640      0.00000
     18       1.7432      0.00000

 k-point    12 :       0.1053    0.0526    0.0000
  band No.  band energies     occupation 
      1     -29.0855      2.00000
      2     -23.9720      2.00000
      3     -20.5467      2.00000
      4     -19.8720      2.00000
      5     -17.0674      2.00000
      6     -15.3862      2.00000
      7     -13.4793      2.00000
      8     -12.7947      2.00000
      9     -12.5345      2.00000
     10     -11.5974      2.00000
     11      -8.8202      2.00000
     12      -8.4509      2.00000
     13      -6.2971      2.00000
     14      -5.9831      2.00000
     15      -0.1267      0.00000
     16       0.0764      0.00000
     17       0.2834      0.00000
     18       1.8696      0.00000

 k-point    13 :       0.1579    0.0526    0.0000
  band No.  band energies     occupation 
      1     -28.9518      2.00000
      2     -24.1266      2.00000
      3     -20.8846      2.00000
      4     -19.8199      2.00000
      5     -16.6189      2.00000
      6     -15.7317      2.00000
      7     -13.3633      2.00000
      8     -12.9249      2.00000
      9     -12.5661      2.00000
     10     -11.4874      2.00000
     11      -8.6796      2.00000
     12      -8.4026      2.00000
     13      -6.3511      2.00000
     14      -5.8588      2.00000
     15      -0.1366      0.00000
     16       0.1631      0.00000
     17       0.6176      0.00000
     18       2.0732      0.00000

 k-point    14 :       0.2105    0.0526    0.0000
  band No.  band energies     occupation 
      1     -28.7656      2.00000
      2     -24.3843      2.00000
      3     -21.1200      2.00000
      4     -19.7634      2.00000
      5     -16.2394      2.00000
      6     -16.1090      2.00000
      7     -13.4247      2.00000
      8     -12.8806      2.00000
      9     -12.4822      2.00000
     10     -11.4634      2.00000
     11      -8.5313      2.00000
     12      -8.3673      2.00000
     13      -6.3617      2.00000
     14      -5.6980      2.00000
     15      -0.1615      0.00000
     16       0.3318      0.00000
     17       1.0002      0.00000
     18       2.3479      0.00000

 k-point    15 :       0.2632    0.0526    0.0000
  band No.  band energies     occupation 
      1     -28.5279      2.00000
      2     -24.7473      2.00000
      3     -21.2128      2.00000
      4     -19.7273      2.00000
      5     -16.4726      2.00000
      6     -15.9801      2.00000
      7     -13.5878      2.00000
      8     -12.7575      2.00000
      9     -12.2568      2.00000
     10     -11.5043      2.00000
     11      -8.4791      2.00000
     12      -8.2943      2.00000
     13      -6.3017      2.00000
     14      -5.5155      2.00000
     15      -0.1672      0.00000
     16       0.5712      0.00000
     17       1.3148      0.00000
     18       2.6902      0.00000

 k-point    16 :       0.3158    0.0526    0.0000
  band No.  band energies     occupation 
      1     -28.2402      2.00000
      2     -25.1888      2.00000
      3     -21.1723      2.00000
      4     -19.7445      2.00000
      5     -16.7375      2.00000
      6     -15.9117      2.00000
      7     -13.6713      2.00000
      8     -12.6938      2.00000
      9     -11.9676      2.00000
     10     -11.5545      2.00000
     11      -8.5120      2.00000
     12      -8.2117      2.00000
     13      -6.1606      2.00000
     14      -5.3457      2.00000
     15      -0.1311      0.00000
     16       0.8767      0.00000
     17       1.4039      0.00000
     18       3.0819      0.00000

 k-point    17 :       0.3684    0.0526    0.0000
  band No.  band energies     occupation 
      1     -27.9045      2.00000
      2     -25.6717      2.00000
      3     -21.0285      2.00000
      4     -19.8447      2.00000
      5     -16.8677      2.00000
      6     -16.0185      2.00000
      7     -13.6224      2.00000
      8     -12.7202      2.00000
      9     -11.7407      2.00000
     10     -11.5398      2.00000
     11      -8.5375      2.00000
     12      -8.1889      2.00000
     13      -5.9511      2.00000
     14      -5.2322      2.00000
     15      -0.0394      0.00000
     16       1.1869      0.00000
     17       1.2949      0.00000
     18       3.4903      0.00000

 k-point    18 :       0.4211    0.0526    0.0000
  band No.  band energies     occupation 
      1     -27.5238      2.00000
      2     -26.1647      2.00000
      3     -20.8127      2.00000
      4     -20.0327      2.00000
      5     -16.8495      2.00000
      6     -16.2357      2.00000
      7     -13.4689      2.00000
      8     -12.8460      2.00000
      9     -11.6139      2.00000
     10     -11.4659      2.00000
     11      -8.5115      2.00000
     12      -8.2322      2.00000
     13      -5.7063      2.00000
     14      -5.2104      2.00000
     15       0.1151      0.00000
     16       0.9228      0.00000
     17       1.7005      0.00000
     18       3.3928      0.00000

 k-point    19 :       0.4737    0.0526    0.0000
  band No.  band energies     occupation 
      1     -27.1024      2.00000
      2     -26.6463      2.00000
      3     -20.5539      2.00000
      4     -20.2820      2.00000
      5     -16.7076      2.00000
      6     -16.4860      2.00000
      7     -13.2610      2.00000
      8     -13.0406      2.00000
      9     -11.5147      2.00000
     10     -11.4523      2.00000
     11      -8.4300      2.00000
     12      -8.3234      2.00000
     13      -5.4716      2.00000
     14      -5.2945      2.00000
     15       0.3338      0.00000
     16       0.6102      0.00000
     17       2.2072      0.00000
[...]
     16       1.5927      0.00000
     17       2.2890      0.00000
     18       3.5511      0.00000

 k-point    40 :       0.4737    0.2105    0.0000
  band No.  band energies     occupation 
      1     -26.7318      2.00000
      2     -26.2903      2.00000
      3     -21.5946      2.00000
      4     -21.2554      2.00000
      5     -16.7511      2.00000
      6     -16.4375      2.00000
      7     -12.7655      2.00000
      8     -12.5454      2.00000
      9     -11.3830      2.00000
     10     -11.1602      2.00000
     11      -8.2791      2.00000
     12      -8.0752      2.00000
     13      -5.3911      2.00000
     14      -5.2174      2.00000
     15       0.8908      0.00000
     16       1.2333      0.00000
     17       2.6755      0.00000
     18       3.1153      0.00000

 k-point    41 :       0.2632    0.2632    0.0000
  band No.  band energies     occupation 
      1     -27.8998      2.00000
      2     -24.7191      2.00000
      3     -22.5117      2.00000
      4     -20.2856      2.00000
      5     -17.2615      2.00000
      6     -15.2419      2.00000
      7     -13.6903      2.00000
      8     -12.4048      2.00000
      9     -11.9363      2.00000
     10     -10.4099      2.00000
     11      -8.8899      2.00000
     12      -8.0348      2.00000
     13      -6.0766      2.00000
     14      -5.1423      2.00000
     15       0.1814      0.00000
     16       1.5716      0.00000
     17       2.2004      0.00000
     18       3.0415      0.00000

 k-point    42 :       0.3158    0.2632    0.0000
  band No.  band energies     occupation 
      1     -27.6178      2.00000
      2     -24.9143      2.00000
      3     -22.6399      2.00000
      4     -20.5911      2.00000
      5     -17.2610      2.00000
      6     -15.3608      2.00000
      7     -13.7047      2.00000
      8     -12.1291      2.00000
      9     -11.8924      2.00000
     10     -10.3048      2.00000
     11      -8.8190      2.00000
     12      -7.9277      2.00000
     13      -5.9258      2.00000
     14      -5.0871      2.00000
     15       0.3258      0.00000
     16       1.8684      0.00000
     17       2.4804      0.00000
     18       3.1167      0.00000

 k-point    43 :       0.3684    0.2632    0.0000
  band No.  band energies     occupation 
      1     -27.2901      2.00000
      2     -25.2437      2.00000
      3     -22.5799      2.00000
      4     -20.9548      2.00000
      5     -17.1421      2.00000
      6     -15.6277      2.00000
      7     -13.5733      2.00000
      8     -12.2767      2.00000
      9     -11.5352      2.00000
     10     -10.3288      2.00000
     11      -8.6482      2.00000
     12      -7.8556      2.00000
     13      -5.7412      2.00000
     14      -5.0654      2.00000
     15       0.5148      0.00000
     16       2.0556      0.00000
     17       2.5307      0.00000
     18       3.3150      0.00000

 k-point    44 :       0.4211    0.2632    0.0000
  band No.  band energies     occupation 
      1     -26.9209      2.00000
      2     -25.6526      2.00000
      3     -22.3772      2.00000
      4     -21.3441      2.00000
      5     -16.9283      2.00000
      6     -15.9649      2.00000
      7     -13.3512      2.00000
      8     -12.5190      2.00000
      9     -11.1915      2.00000
     10     -10.4518      2.00000
     11      -8.4165      2.00000
     12      -7.8681      2.00000
     13      -5.5352      2.00000
     14      -5.0921      2.00000
     15       0.7621      0.00000
     16       1.8524      0.00000
     17       2.6863      0.00000
     18       3.6482      0.00000

 k-point    45 :       0.4737    0.2632    0.0000
  band No.  band energies     occupation 
      1     -26.5166      2.00000
      2     -26.0877      2.00000
      3     -22.0817      2.00000
      4     -21.7284      2.00000
      5     -16.6450      2.00000
      6     -16.3155      2.00000
      7     -13.0829      2.00000
      8     -12.7972      2.00000
      9     -10.8947      2.00000
     10     -10.6460      2.00000
     11      -8.1775      2.00000
     12      -7.9817      2.00000
     13      -5.3370      2.00000
     14      -5.1822      2.00000
     15       1.0777      0.00000
     16       1.4570      0.00000
     17       3.0029      0.00000
     18       3.3555      0.00000

 k-point    46 :       0.3158    0.3158    0.0000
  band No.  band energies     occupation 
      1     -27.3392      2.00000
      2     -24.9487      2.00000
      3     -22.9124      2.00000
      4     -20.9751      2.00000
      5     -17.1879      2.00000
      6     -15.3669      2.00000
      7     -13.8751      2.00000
      8     -12.2372      2.00000
      9     -11.5046      2.00000
     10     -10.0667      2.00000
     11      -8.7046      2.00000
     12      -7.8554      2.00000
     13      -5.7843      2.00000
     14      -5.0524      2.00000
     15       0.4715      0.00000
     16       2.1906      0.00000
     17       2.8227      0.00000
     18       3.1876      0.00000

 k-point    47 :       0.3684    0.3158    0.0000
  band No.  band energies     occupation 
      1     -27.0165      2.00000
      2     -25.1377      2.00000
      3     -22.9772      2.00000
      4     -21.3935      2.00000
      5     -17.0194      2.00000
      6     -15.5314      2.00000
      7     -13.8677      2.00000
      8     -12.5134      2.00000
      9     -11.0580      2.00000
     10      -9.9733      2.00000
     11      -8.5133      2.00000
     12      -7.7982      2.00000
     13      -5.6181      2.00000
     14      -5.0451      2.00000
     15       0.6600      0.00000
     16       2.3332      0.00000
     17       2.9907      0.00000
     18       3.3018      0.00000

 k-point    48 :       0.4211    0.3158    0.0000
  band No.  band energies     occupation 
      1     -26.6549      2.00000
      2     -25.4635      2.00000
      3     -22.8416      2.00000
      4     -21.8164      2.00000
      5     -16.7761      2.00000
      6     -15.8168      2.00000
      7     -13.7039      2.00000
      8     -12.8264      2.00000
      9     -10.6794      2.00000
     10     -10.0107      2.00000
     11      -8.2824      2.00000
     12      -7.7992      2.00000
     13      -5.4415      2.00000
     14      -5.0741      2.00000
     15       0.9134      0.00000
     16       2.0763      0.00000
     17       3.1282      0.00000
     18       3.6222      0.00000

 k-point    49 :       0.4737    0.3158    0.0000
  band No.  band energies     occupation 
      1     -26.2631      2.00000
      2     -25.8564      2.00000
      3     -22.5705      2.00000
      4     -22.2175      2.00000
      5     -16.4787      2.00000
      6     -16.1491      2.00000
      7     -13.4485      2.00000
      8     -13.1464      2.00000
      9     -10.3771      2.00000
     10     -10.1518      2.00000
     11      -8.0590      2.00000
     12      -7.8876      2.00000
     13      -5.2773      2.00000
     14      -5.1505      2.00000
     15       1.2456      0.00000
     16       1.6505      0.00000
     17       3.3692      0.00000
     18       3.6122      0.00000

 k-point    50 :       0.3684    0.3684    0.0000
  band No.  band energies     occupation 
      1     -26.7014      2.00000
      2     -25.1381      2.00000
      3     -23.2162      2.00000
      4     -21.8469      2.00000
      5     -16.8208      2.00000
      6     -15.5346      2.00000
      7     -14.0322      2.00000
      8     -12.8377      2.00000
      9     -10.5945      2.00000
     10      -9.7560      2.00000
     11      -8.3279      2.00000
     12      -7.7505      2.00000
     13      -5.4805      2.00000
     14      -5.0451      2.00000
     15       0.8421      0.00000
     16       2.4478      0.00000
     17       3.3237      0.00000
     18       3.3789      0.00000

 k-point    51 :       0.4211    0.3684    0.0000
  band No.  band energies     occupation 
      1     -26.3523      2.00000
      2     -25.3093      2.00000
      3     -23.2208      2.00000
      4     -22.2879      2.00000
      5     -16.5637      2.00000
      6     -15.6926      2.00000
      7     -13.9983      2.00000
      8     -13.1819      2.00000
      9     -10.2133      2.00000
     10      -9.6878      2.00000
     11      -8.1207      2.00000
     12      -7.7395      2.00000
     13      -5.3429      2.00000
     14      -5.0705      2.00000
     15       1.0906      0.00000
     16       2.2208      0.00000
     17       3.4907      0.00000
     18       3.5546      0.00000

 k-point    52 :       0.4737    0.3684    0.0000
  band No.  band energies     occupation 
      1     -25.9823      2.00000
      2     -25.6172      2.00000
      3     -23.0192      2.00000
      4     -22.6899      2.00000
      5     -16.2683      2.00000
      6     -15.9622      2.00000
      7     -13.8017      2.00000
      8     -13.5138      2.00000
      9      -9.9310      2.00000
     10      -9.7526      2.00000
     11      -7.9309      2.00000
     12      -7.7967      2.00000
     13      -5.2209      2.00000
     14      -5.1281      2.00000
     15       1.4202      0.00000
     16       1.8184      0.00000
     17       3.6498      0.00000
     18       3.7416      0.00000

 k-point    53 :       0.4211    0.4211    0.0000
  band No.  band energies     occupation 
      1     -26.0248      2.00000
      2     -25.2721      2.00000
      3     -23.4201      2.00000
      4     -22.7303      2.00000
      5     -16.3093      2.00000
      6     -15.6686      2.00000
      7     -14.1452      2.00000
      8     -13.5367      2.00000
      9      -9.8481      2.00000
     10      -9.5140      2.00000
     11      -7.9523      2.00000
     12      -7.7049      2.00000
     13      -5.2512      2.00000
     14      -5.0846      2.00000
     15       1.3233      0.00000
     16       2.1868      0.00000
     17       3.5139      0.00000
     18       3.6910      0.00000

 k-point    54 :       0.4737    0.4211    0.0000
  band No.  band energies     occupation 
      1     -25.6962      2.00000
      2     -25.4168      2.00000
      3     -23.3679      2.00000
      4     -23.1089      2.00000
      5     -16.0392      2.00000
      6     -15.8001      2.00000
      7     -14.0820      2.00000
      8     -13.8536      2.00000
      9      -9.6047      2.00000
     10      -9.4903      2.00000
     11      -7.8092      2.00000
     12      -7.7228      2.00000
     13      -5.1749      2.00000
     14      -5.1190      2.00000
     15       1.6190      0.00000
     16       1.9421      0.00000
     17       3.6561      0.00000
     18       3.7545      0.00000

 k-point    55 :       0.4737    0.4737    0.0000
  band No.  band energies     occupation 
      1     -25.4534      2.00000
      2     -25.3413      2.00000
      3     -23.5225      2.00000
      4     -23.4170      2.00000
      5     -15.8375      2.00000
      6     -15.7407      2.00000
      7     -14.2040      2.00000
      8     -14.1108      2.00000
      9      -9.4190      2.00000
     10      -9.3796      2.00000
     11      -7.7207      2.00000
     12      -7.6906      2.00000
     13      -5.1427      2.00000
     14      -5.1240      2.00000
     15       1.8223      0.00000
     16       1.9547      0.00000
     17       3.6148      0.00000
     18       3.6959      0.00000


--------------------------------------------------------------------------------------------------------


 soft charge-density along one line, spin component           1
         0         1         2         3         4         5         6         7         8         9
 total charge-density along one line
 
 pseudopotential strength for first ion, spin component:           1
 10.447  13.898  -0.000   0.000   0.000   0.000  -0.000  -0.000
 13.898  18.489  -0.000   0.000   0.000   0.000  -0.000  -0.000
 -0.000  -0.000  -4.566   0.000  -0.000   8.942  -0.000   0.000
  0.000   0.000   0.000  -4.565   0.000  -0.000   8.942  -0.000
  0.000   0.000  -0.000   0.000  -4.566   0.000  -0.000   8.942
  0.000   0.000   8.942  -0.000   0.000 -19.662   0.000  -0.000
 -0.000  -0.000  -0.000   8.942  -0.000   0.000 -19.665   0.000
 -0.000  -0.000   0.000  -0.000   8.942  -0.000   0.000 -19.662
 total augmentation occupancy for first ion, spin component:           1
  7.518  -3.441   0.000   0.000   0.000   0.000   0.000   0.000
 -3.441   1.730   0.000   0.000   0.000   0.000   0.000   0.000
  0.000   0.000   1.564   0.000   0.000   0.137  -0.000   0.000
  0.000   0.000   0.000   1.378   0.000   0.000   0.120   0.000
  0.000   0.000   0.000   0.000   1.564  -0.000   0.000   0.137
  0.000   0.000   0.137   0.000  -0.000   0.015   0.000  -0.000
  0.000   0.000  -0.000   0.120   0.000   0.000   0.012   0.000
  0.000   0.000   0.000   0.000   0.137   0.000   0.000   0.015


------------------------ aborting loop because EDIFF is reached ----------------------------------------


 


 total charge     
 
# of ion     s       p       d       tot
----------------------------------------
  1        0.829   1.655   0.000   2.485
  2        0.827   1.658   0.000   2.485
  3        1.244   2.616   0.000   3.859
  4        1.232   2.599   0.000   3.832
  5        1.244   2.616   0.000   3.859
  6        1.232   2.599   0.000   3.832
------------------------------------------------
tot        6.608  13.743   0.000  20.352
 
    CHARGE:  cpu time    0.0170: real time    0.0170
    FORLOC:  cpu time    0.0006: real time    0.0006
    FORNL :  cpu time    0.0581: real time    0.0581
    STRESS:  cpu time    0.2380: real time    0.2382
    FORCOR:  cpu time    0.0050: real time    0.0050
    FORHAR:  cpu time    0.0016: real time    0.0016
    MIXING:  cpu time    0.0007: real time    0.0007
    OFIELD:  cpu time    0.0000: real time    0.0000

  FORCE on cell =-STRESS in cart. coord.  units (eV):
  Direction    XX          YY          ZZ          XY          YZ          ZX
  --------------------------------------------------------------------------------------
  Alpha Z    13.44073    13.44073    13.44073
  Ewald   10167.16570 10167.16570-11140.67507     0.00000    -0.00000     0.00000
  Hartree 10168.44637 10168.44637-10034.63467    -0.00000    -0.00000    -0.00000
  E(xc)    -116.23953  -116.23953  -117.85192    -0.00000    -0.00000     0.00000
  Local  -20679.68434-20679.68434 20767.07479     0.00000    -0.00000    -0.00000
  n-local   -51.71675   -51.72475   -64.18348    -0.05523    -0.00000    -0.00000
  augment     2.37238     2.37238     4.75525     0.00000    -0.00000    -0.00000
  Kinetic   495.61967   496.45551   571.94344    -0.71914     0.00000     0.00000
  Fock        0.00000     0.00000     0.00000     0.00000     0.00000     0.00000
  -------------------------------------------------------------------------------------
  Total      -0.18185    -0.18185    -0.13093     0.00000     0.00000     0.00000
  in kB      -1.09891    -1.09891    -0.79122     0.00000     0.00000     0.00000
  external pressure =       -1.00 kB  Pullay stress =        0.00 kB


 VOLUME and BASIS-vectors are now :
 -----------------------------------------------------------------------------
  energy-cutoff  :      500.00
  volume of cell :      265.13
      direct lattice vectors                 reciprocal lattice vectors
     3.315000000  0.000000000  0.000000000     0.301659125  0.000000000  0.000000000
     0.000000000  3.315000000  0.000000000     0.000000000  0.301659125  0.000000000
     0.000000000  0.000000000 24.126512000     0.000000000  0.000000000  0.041448179

  length of vectors
     3.315000000  3.315000000 24.126512000     0.301659125  0.301659125  0.041448179


 FORCES acting on ions
    electron-ion (+dipol)            ewald-force                    non-local-force                 convergence-correction
 -----------------------------------------------------------------------------------------------
   -.612E-14 -.377E-13 0.560E-12   -.355E-13 0.000E+00 0.000E+00   0.000E+00 -.517E-25 0.000E+00   -.184E-14 0.824E-14 -.541E-12
   0.201E-13 -.232E-13 -.459E-12   -.426E-13 -.711E-14 0.142E-13   0.000E+00 -.517E-25 0.000E+00   -.443E-14 0.611E-14 -.522E-12
   0.356E+02 -.356E+02 -.537E+03   -.455E+02 0.455E+02 0.565E+03   0.989E+01 -.989E+01 -.282E+02   0.170E-03 -.170E-03 0.678E-03
   -.356E+02 -.356E+02 0.537E+03   0.455E+02 0.455E+02 -.565E+03   -.989E+01 -.989E+01 0.282E+02   -.170E-03 -.170E-03 -.678E-03
   -.356E+02 0.356E+02 -.537E+03   0.455E+02 -.455E+02 0.565E+03   -.989E+01 0.989E+01 -.282E+02   -.170E-03 0.170E-03 0.678E-03
   0.356E+02 0.356E+02 0.537E+03   -.455E+02 -.455E+02 -.565E+03   0.989E+01 0.989E+01 0.282E+02   0.170E-03 0.170E-03 -.678E-03
 -----------------------------------------------------------------------------------------------
   -.681E-07 -.681E-07 0.369E-07   0.000E+00 0.000E+00 0.000E+00   0.000E+00 0.355E-14 0.355E-14   0.124E-14 -.897E-14 -.355E-11
 
 
 POSITION                                       TOTAL-FORCE (eV/Angst)
 -----------------------------------------------------------------------------------
      0.00000      0.00000     12.06326        -0.000000      0.000000      0.000000
      1.65750      1.65750     12.06326         0.000000      0.000000      0.000000
      1.14551      0.51199     12.82708         0.003653     -0.003653      0.000129
      0.51199      2.16949     11.29943        -0.003653     -0.003653     -0.000129
      2.16949      2.80301     12.82708        -0.003653      0.003653      0.000129
      2.80301      1.14551     11.29943         0.003653      0.003653     -0.000129
 -----------------------------------------------------------------------------------
    total drift:                               -0.000000     -0.000000      0.000000


--------------------------------------------------------------------------------------------------------



  FREE ENERGIE OF THE ION-ELECTRON SYSTEM (eV)
  ---------------------------------------------------
  free  energy   TOTEN  =       -48.08218452 eV

  energy  without entropy=      -48.08218452  energy(sigma->0) =      -48.08218452
 


--------------------------------------------------------------------------------------------------------


    POTLOK:  cpu time    0.0057: real time    0.0057


--------------------------------------------------------------------------------------------------------


 writing wavefunctions
     LOOP+:  cpu time    7.2684: real time    7.3174
    4ORBIT:  cpu time    0.0000: real time    0.0000
 


 total charge     
 
# of ion     s       p       d       tot
----------------------------------------
  1        0.829   1.655   0.000   2.485
  2        0.827   1.658   0.000   2.485
  3        1.244   2.616   0.000   3.859
  4        1.232   2.599   0.000   3.832
  5        1.244   2.616   0.000   3.859
  6        1.232   2.599   0.000   3.832
------------------------------------------------
tot        6.608  13.743   0.000  20.352
 

 total amount of memory used by VASP on root node    39909. kBytes
========================================================================

   base      :      30000. kBytes
   nonl-proj :       6165. kBytes
   fftplans  :        559. kBytes
   grid      :        870. kBytes
   one-center:          3. kBytes
   wavefun   :       2312. kBytes
 
  
  
 General timing and accounting informations for this job:
 ========================================================
  
                  Total CPU time used (sec):        8.961
                            User time (sec):        7.433
                          System time (sec):        1.528
                         Elapsed time (sec):        9.331
  
                   Maximum memory used (kb):      145960.
                   Average memory used (kb):           0.
  
                          Minor page faults:        30539
                          Major page faults:            9
                 Voluntary context switches:          588
