unknown system                          
   1.00000000000000     
     3.315000    0.000000    0.000000
     0.000000    3.315000    0.000000
     0.000000    0.000000   24.126512
   C    N 
     2     4
Direct
  0.000000  0.000000  0.500000
  0.500000  0.500000  0.500000
  0.345554  0.154446  0.531659
  0.154446  0.654446  0.468341
  0.654446  0.845554  0.531659
  0.845554  0.345554  0.468341
 
   18   18  140
 0.52090E-12 0.28345E-14 0.16626E-13 0.41078E-14 0.73830E-14 0.15643E-12 0.39516E-12 0.68689E-12 0.14685E-11 0.16269E-11
 0.16562E-11 0.75817E-12 0.42888E-12 0.16892E-12 0.71609E-14 0.39413E-14 0.16986E-13 0.28415E-14 0.75845E-12 0.83267E-16
  0.0000     0.71332E-13 0.22204E-15 0.30925E-12 0.34978E-12 0.58686E-12 0.18827E-11 0.16562E-11 0.24897E-13 0.27894E-14
 0.18735E-14 0.13600E-14 0.10880E-13 0.17764E-14 0.12684E-13 0.43685E-12 0.30381E-12 0.63172E-13 0.44575E-13 0.94535E-13
 0.22482E-13 0.14921E-12 0.12329E-12 0.18208E-12 0.55428E-12 0.75809E-12 0.27200E-14 0.69458E-14 0.85279E-14 0.14017E-13
 0.94924E-14 0.38858E-15 0.25535E-14 0.14044E-12 0.78493E-13 0.68112E-13 0.44797E-13 0.40967E-13 0.45408E-13 0.12801E-12
 0.92759E-13 0.12346E-12 0.33162E-12 0.42871E-12 0.16931E-14 0.83406E-14 0.76328E-14 0.83544E-14 0.59674E-14 0.16653E-15
 0.66613E-14 0.12212E-14 0.13317E-12 0.79936E-13 0.26701E-13 0.20650E-13 0.19013E-13 0.16820E-12 0.13300E-12 0.15593E-12
 0.30675E-12 0.16881E-12 0.14433E-14 0.13933E-13 0.84655E-14 0.25577E-13 0.13189E-12 0.13500E-12 0.10636E-12 0.10453E-12
 0.62722E-12 0.11388E-12 0.20317E-13 0.19637E-13 0.12101E-13 0.17875E-13 0.42855E-13 0.21538E-13 0.55511E-16 0.73275E-14
 0.10963E-13 0.94369E-14 0.60785E-14 0.13184E-12 0.25807E-12 0.16864E-12 0.19906E-12 0.47862E-12 0.88343E-12 0.11682E-12
 0.20491E-13 0.14475E-13 0.19651E-13 0.20622E-13 0.41134E-13 0.94869E-13 0.72331E-13 0.38858E-14 0.15543E-14 0.16653E-15
 0.11102E-15 0.13500E-12 0.16842E-12 0.10925E-12 0.14605E-12 0.44048E-12 0.15300E-11 0.17210E-12 0.29823E-13 0.20380E-13
 0.20206E-13 0.26729E-13 0.45131E-13 0.44742E-13  0.0000     0.16820E-13 0.12712E-13 0.23870E-14 0.66058E-14 0.10630E-12
 0.19906E-12 0.14611E-12 0.21549E-12 0.72276E-12 0.44268E-11 0.67482E-12 0.17739E-12 0.12011E-12 0.11646E-12 0.80352E-13
 0.68223E-13 0.63366E-13 -.27756E-16 0.29421E-14 0.43687E-12 0.14044E-12 0.11657E-14 0.10442E-12 0.47862E-12 0.44054E-12
 0.72298E-12 0.26337E-11 0.71298E-11 0.41590E-11 0.13667E-11 0.80028E-12 0.60529E-12 0.13167E-12 0.79103E-13 0.30106E-12
 0.74971E-12 0.52078E-12 0.75846E-12 0.30370E-12 0.78437E-13 0.13295E-12 0.62716E-12 0.88338E-12 0.15299E-11 0.44267E-11
 0.41589E-11 0.29309E-11 0.75157E-12 0.45602E-12 0.51498E-12 0.10170E-12 0.12212E-14 0.13928E-12 0.43983E-12 0.27929E-14
 0.83267E-16 0.63116E-13 0.68168E-13 0.79797E-13 0.11394E-12 0.11693E-12 0.17214E-12 0.67490E-12 0.13666E-11 0.75168E-12
 0.21172E-12 0.14372E-12 0.20300E-12 0.98532E-13 0.66613E-14 0.26090E-14 0.13101E-13 0.16764E-13  0.0000     0.44631E-13
 0.44964E-13 0.26562E-13 0.20220E-13 0.20491E-13 0.29858E-13 0.17741E-12 0.80025E-12 0.45608E-12 0.14372E-12 0.10769E-12
 0.17242E-12 0.12651E-12 0.16653E-15 0.27756E-15 0.15543E-14 0.40523E-14 0.71332E-13 0.94480E-13 0.41189E-13 0.20622E-13
 0.19901E-13 0.14655E-13 0.20248E-13 0.12007E-12 0.60540E-12 0.51503E-12 0.20328E-12 0.17264E-12 0.27522E-12 0.12867E-12
 0.59674E-14 0.94924E-14 0.10991E-13 0.73275E-14 0.11102E-15 0.22482E-13 0.45575E-13 0.19013E-13 0.12018E-13 0.19595E-13
 0.20262E-13 0.11652E-12 0.13184E-12 0.10170E-12 0.98921E-13 0.12679E-12 0.12879E-12 0.24938E-13 0.84932E-14 0.14030E-13
 0.12768E-14 0.15654E-12 0.30925E-12 0.14944E-12 0.12823E-12 0.16825E-12 0.17764E-13 0.20789E-13 0.26840E-13 0.80436E-13
 0.79048E-13 0.11102E-14 0.67168E-14 -.55511E-16 0.60507E-14 0.84099E-14 0.74871E-14 0.84238E-14 0.17764E-14 0.39513E-12
 0.34950E-12 0.12318E-12 0.92870E-13 0.13289E-12 0.42633E-13 0.41134E-13 0.44909E-13 0.68057E-13 0.30098E-12 0.13922E-12
 0.26090E-14 0.11102E-15 0.94091E-14 0.13906E-13 0.85071E-14 0.69736E-14 0.29282E-14 0.68701E-12 0.58664E-12 0.18208E-12
 0.12346E-12 0.15588E-12 0.21538E-13 0.95091E-13 0.44964E-13 0.63421E-13 0.74986E-12 0.43993E-12 0.12962E-13 0.16653E-14
 0.10963E-13 0.13323E-14 0.18041E-14 0.28866E-14 0.25618E-13 0.14684E-11 0.18827E-11 0.55422E-12 0.33185E-12 0.30675E-12
 0.16653E-15 0.72442E-13 0.16653E-15 0.83267E-16 0.19452E-12 0.30582E-12 0.13411E-12 0.36804E-13 0.93980E-13 0.10941E-11
 0.19507E-11 0.43905E-11 0.37695E-10 0.21187E-09 0.31286E-10 0.38765E-11 0.17646E-11 0.10127E-11 0.94369E-13 0.37192E-13
 0.13251E-12 0.29503E-12 -.13878E-16 0.27101E-12 0.74774E-13 0.16653E-15 0.87430E-13 0.52958E-12 0.45441E-12 0.80913E-12
 0.47986E-11 0.31286E-10 0.55075E-11 0.76514E-12 0.39474E-12 0.23642E-12 0.65503E-13 0.36748E-13 0.30864E-13 0.41633E-15
 0.34028E-13 0.88263E-14 0.88818E-15 0.85487E-14 0.98699E-13 0.18091E-12 0.12501E-12 0.19357E-12 0.84416E-12 0.38764E-11
 0.76505E-12 0.99434E-13 0.52992E-13 0.41092E-13 0.26867E-13 0.33251E-13 0.31863E-13 0.63838E-15 0.19984E-14 0.33307E-15
 -.55511E-16 0.27756E-15 0.12362E-12 0.14355E-12 0.88429E-13 0.12473E-12 0.47273E-12 0.17645E-11 0.39466E-12 0.52777E-13
 0.27540E-13 0.34660E-13 0.22635E-13 0.34750E-13 0.76827E-13 0.71776E-13 0.24980E-14 0.39968E-14 0.37192E-14 0.26923E-14
 0.98976E-13 0.21966E-12 0.13994E-12 0.17597E-12 0.53935E-12 0.10127E-11 0.23648E-12 0.41106E-13 0.34771E-13 0.12837E-13
 0.24342E-13 0.40079E-13 0.19984E-13 0.61062E-15 0.98893E-13 0.97145E-16 0.49405E-14 0.26645E-14 0.11657E-13 0.10508E-12
 0.12956E-12 0.10170E-12 0.90761E-13 0.94369E-13 0.65392E-13 0.27006E-13 0.22524E-13 0.24314E-13 0.20214E-12 0.15166E-12
 0.16448E-12 0.27101E-12 0.19026E-12 0.13045E-14 0.19984E-14 0.18874E-14 0.26645E-14 0.24425E-14 0.27756E-15 0.84932E-14
 -.55511E-16 0.37248E-13 0.36693E-13 0.33251E-13 0.34639E-13 0.40107E-13 0.15174E-12 0.10841E-12 0.13553E-12 0.30503E-12
 0.27786E-12 0.16653E-14 0.16306E-14 0.20262E-14 0.49405E-14 0.36082E-14 0.11102E-15 0.77716E-15 0.72553E-13 0.13251E-12
 0.30975E-13 0.31697E-13 0.76827E-13 0.19984E-13 0.16442E-12 0.13547E-12 0.18766E-12 0.46407E-12 0.38057E-12 0.10374E-13
 0.15890E-14 0.12768E-14 0.13878E-16 0.38858E-14 0.22204E-15 0.88263E-14 0.26168E-12 0.29506E-12 0.48572E-15 0.63838E-15
 0.71942E-13 0.49960E-15 0.27101E-12 0.30509E-12 0.46430E-12 0.10179E-11 0.29117E-12 0.39607E-12 0.30428E-12 0.20653E-12
 0.10064E-12 0.22760E-14 0.21094E-14 0.34167E-13 -.13878E-16 0.19445E-12 0.62450E-16 0.33917E-13 0.20539E-14 0.26090E-14
 0.98727E-13 0.19025E-12 0.27786E-12 0.38042E-12 0.39611E-12 0.91394E-12 0.44423E-12 0.29357E-12 0.24955E-12 0.49960E-15
 0.74107E-13 0.86042E-15 0.34694E-15 0.30580E-12 0.27098E-12 0.86597E-14 0.38858E-15 0.40523E-14 0.55511E-16 0.13045E-14
 0.16029E-14 0.10464E-13 0.30420E-12 0.44442E-12 0.19199E-12 0.13839E-12 0.15948E-12 0.21649E-13 0.76272E-13 0.30920E-13
 0.30476E-13 0.13411E-12 0.74885E-13 0.77716E-15 0.11102E-15 0.36637E-14 0.49266E-14 0.20678E-14 0.15821E-14 0.16168E-14
 0.20654E-12 0.29360E-12 0.13839E-12 0.11036E-12 0.14666E-12 0.43049E-13 0.34028E-13 0.32918E-13 0.36471E-13 0.36582E-13
 0.16653E-15 0.83267E-14 0.49960E-15 0.25535E-14 0.29282E-14 0.19013E-14 0.19221E-14 0.13392E-14 0.10081E-12 0.24958E-12
 0.15976E-12 0.14697E-12 0.18754E-12 0.24980E-13 0.22510E-13 0.27145E-13 0.65226E-13 0.94091E-13 0.87486E-13 0.98643E-13
 0.12385E-12 0.99032E-13 0.11574E-13 0.29143E-14 0.50238E-14 0.27756E-16 0.24425E-14 0.49960E-15 0.21927E-13 0.43021E-13
 0.25022E-13 0.13212E-13 0.34861E-13 0.41273E-13 0.23181E-12 0.10942E-11 0.52969E-12 0.18119E-12 0.14366E-12 0.21971E-12
 0.10508E-12 0.26645E-14 0.36360E-14 0.40523E-14 0.21649E-14 0.73996E-13 0.76383E-13 0.34028E-13 0.22329E-13 0.34930E-13
 0.27658E-13 0.53131E-13 0.37803E-12 0.19507E-11 0.45430E-12 0.12479E-12 0.88485E-13 0.13983E-12 0.12945E-12 0.33307E-15
  0.0000     0.33307E-15 0.34139E-13 0.80491E-15 0.30920E-13 0.32974E-13 0.26923E-13 0.41203E-13 0.53062E-13 0.10020E-12
 0.72814E-12 0.43905E-11 0.80908E-12 0.19362E-12 0.12479E-12 0.17569E-12 0.10164E-12 0.84932E-14 0.77716E-15 0.87153E-14
 0.76328E-16 0.49960E-15 0.30365E-13 0.36415E-13 0.65115E-13 0.23170E-12 0.37814E-12 0.72814E-12 0.52222E-11 0.37695E-10
 0.47986E-11 0.84416E-12 0.47307E-12 0.53935E-12 0.90705E-13 0.22204E-15 0.72720E-13 0.26174E-12 0.56982E-13 0.55511E-16
 0.48850E-14 0.61062E-15 0.27756E-14 0.48822E-12 0.19565E-11 0.56149E-11 0.12356E-09 0.13452E-08 0.13436E-09 0.63812E-11
 0.21771E-11 0.52214E-12 0.26090E-14 0.66613E-15 0.51070E-14 0.83267E-16 0.22549E-12 0.22204E-15 0.22204E-15 0.22204E-13
 0.33307E-15 0.36110E-12 0.36077E-12 0.68129E-12 0.44125E-11 0.13436E-09 0.50354E-10 0.22476E-12 0.57759E-13 0.23870E-14
 0.68834E-14 0.16653E-15 0.27756E-14 0.12029E-12 0.33348E-12 0.46574E-13 0.21427E-13 0.50793E-13 0.23648E-13 0.12129E-12
 0.93370E-13 0.14988E-12 0.66547E-12 0.63813E-11 0.22471E-12 0.17561E-12 0.10875E-12 0.77202E-13 0.93814E-14 0.27756E-16
 0.88818E-15 0.10422E-12 0.98310E-13 0.61340E-13 0.26035E-13 0.24480E-13 0.44131E-13 0.92870E-13 0.64282E-13 0.93425E-13
 0.35172E-12 0.21770E-11 0.57621E-13 0.10865E-12 0.66981E-13 0.34639E-13 0.62866E-14 0.22204E-15 0.53846E-14 0.49960E-15
 0.74718E-13 0.35860E-13 0.93259E-14 0.76605E-14 0.17042E-13 0.12690E-12 0.94980E-13 0.12379E-12 0.35122E-12 0.52203E-12
 0.23315E-14 0.77119E-13 0.34694E-13 0.60812E-13 0.13574E-12 0.91066E-13 0.62533E-13 0.59869E-13 0.16878E-12 0.24078E-13
 0.41633E-14 0.44964E-14 0.39135E-14 0.16154E-13 0.42799E-13 0.23592E-13 0.44409E-15 0.26645E-14 0.69389E-14 0.94647E-14
 0.62172E-14 0.13581E-12 0.28315E-12 0.18964E-12 0.19396E-12 0.28832E-12 0.18580E-12 0.17347E-13 0.31156E-14 0.27200E-14
 0.44964E-14 0.74385E-14 0.24480E-13 0.51015E-13 0.22649E-13 0.38858E-15 0.55511E-16 -.11102E-15 0.27756E-15 0.91011E-13
 0.18976E-12 0.13636E-12 0.16112E-12 0.29286E-12 0.23889E-12 0.20633E-13 0.41703E-14 0.31572E-14 0.41495E-14 0.91038E-14
 0.26090E-13 0.21372E-13 0.11102E-15 0.49960E-14 0.27200E-14 0.77716E-15 0.53013E-14 0.62478E-13 0.19387E-12 0.16132E-12
 0.20965E-12 0.39931E-12 0.31957E-12 0.53121E-13 0.20945E-13 0.17694E-13 0.24258E-13 0.35916E-13 0.61229E-13 0.46019E-13
 -.55511E-16  0.0000     0.12026E-12 0.10431E-12 0.52736E-15 0.59869E-13 0.28824E-12 0.29300E-12 0.39940E-12 0.64719E-12
 0.30134E-12 0.31036E-12 0.22168E-12 0.17306E-12 0.16646E-12 0.73108E-13 0.97755E-13 0.33376E-12 0.23040E-12 0.56899E-13
 0.22560E-12 0.33343E-12 0.98366E-13 0.74635E-13 0.16877E-12 0.18580E-12 0.23878E-12 0.31956E-12 0.31038E-12 0.71466E-12
 0.41744E-12 0.30463E-12 0.31414E-12 0.57038E-13 0.58287E-15 0.10597E-12 0.12318E-12  0.0000     0.11102E-15 0.46518E-13
 0.61229E-13 0.35943E-13 0.24009E-13 0.17472E-13 0.20681E-13 0.53162E-13 0.22169E-12 0.41754E-12 0.20385E-12 0.15710E-12
 0.20101E-12 0.57315E-13 0.54123E-14 0.77716E-15 0.27200E-14 0.49960E-14 0.16653E-15 0.21594E-13 0.25979E-13 0.91593E-14
 0.41633E-14 0.32196E-14 0.41911E-14 0.20980E-13 0.17301E-12 0.30465E-12 0.15690E-12 0.13339E-12 0.19705E-12 0.84099E-13
 0.24980E-15 -.83267E-16  0.0000     0.66613E-15 0.22315E-13 0.50793E-13 0.24813E-13 0.75495E-14 0.48017E-14 0.25674E-14
 0.31156E-14 0.17715E-13 0.16658E-12 0.31419E-12 0.20117E-12 0.19718E-12 0.30792E-12 0.13037E-12 0.63421E-14 0.94369E-14
 0.70499E-14 0.27200E-14 0.61062E-15 0.23814E-13 0.44242E-13 0.16931E-13 0.37748E-14 0.45242E-14 0.41356E-14 0.24231E-13
 0.73441E-13 0.57121E-13 0.57759E-13 0.84238E-13 0.13034E-12 0.58675E-13 0.34597E-13 0.76814E-13 0.23870E-14 0.48850E-12
 0.36132E-12 0.12157E-12 0.93203E-13 0.12690E-12 0.16154E-13 0.76605E-14 0.92704E-14 0.36027E-13 0.97700E-13 0.49960E-15
 0.53291E-14 0.27756E-16 0.62450E-14 0.34500E-13 0.66849E-13 0.10816E-12 0.61950E-13 0.19567E-11 0.36071E-12 0.93259E-13
 0.64393E-13 0.94924E-13 0.42855E-13 0.24258E-13 0.25757E-13 0.61007E-13 0.33379E-12 0.10583E-12 0.77716E-15 -.83267E-16
 0.93536E-14 0.76800E-13 0.10826E-12 0.17381E-12 0.24825E-12 0.56150E-11 0.68107E-12 0.14977E-12 0.93425E-13 0.12373E-12
 0.23592E-13 0.50848E-13 0.21483E-13 0.46130E-13 0.23057E-12 0.12335E-12 0.26645E-14 0.55511E-16 0.69944E-14 0.23315E-14
 0.62006E-13 0.24825E-12 0.60984E-10 0.12356E-09 0.44124E-11 0.66558E-12 0.35200E-12 0.35111E-12 0.49960E-15 0.22926E-13
 0.22204E-15 0.11102E-15 0.15710E-13 0.39579E-13 0.29032E-13 0.96034E-14 0.42744E-13 0.18598E-11 0.51040E-11 0.12755E-10
 0.40916E-10 0.21153E-10 0.47467E-10 0.12046E-10 0.47043E-11 0.17892E-11 0.42522E-13 0.96589E-14 0.28699E-13 0.39024E-13
  0.0000     0.48794E-13 0.18874E-13  0.0000     0.49738E-13 0.47373E-12 0.39002E-12 0.73686E-12 0.49996E-11 0.47467E-10
 0.11219E-09 0.14334E-09 0.14076E-10 0.92487E-12 0.36637E-13 0.11546E-13 0.75495E-14  0.0000     0.15765E-13 0.35527E-14
 0.38858E-15 0.36637E-14 0.73608E-13 0.12790E-12 0.87486E-13 0.14394E-12 0.73963E-12 0.12046E-10 0.14334E-09 0.87881E-10
 0.47224E-11 0.34209E-12 0.25813E-13 0.14461E-13 0.11990E-13 0.22204E-15 0.11102E-14 0.38858E-15  0.0000     0.16653E-15
 0.92315E-13 0.93064E-13 0.57981E-13 0.87402E-13 0.39385E-12 0.47041E-11 0.14076E-10 0.47221E-11 0.12805E-11 0.26548E-12
 0.23939E-13 0.16237E-13 0.33196E-13 0.37470E-13 0.12490E-14 0.17764E-14 0.14433E-14 0.11657E-14 0.67335E-13 0.14833E-12
 0.92315E-13 0.12695E-12 0.49077E-12 0.17891E-11 0.92476E-12 0.34212E-12 0.26548E-12 0.45630E-13 0.21927E-13 0.23925E-13
 0.11074E-13 0.24980E-15 0.29754E-13 0.69389E-16 0.14988E-14 0.86042E-15 0.53846E-14 0.70388E-13 0.93536E-13 0.72831E-13
 0.50127E-13 0.42522E-13 0.36693E-13 0.25924E-13 0.23911E-13 0.21913E-13 0.20410E-12 0.15514E-12 0.14549E-12 0.14831E-12
 0.50737E-13 0.30531E-15 0.48572E-15 0.58287E-15 0.80491E-15 0.88818E-15 0.11102E-15 0.38858E-14 -.11102E-15 0.96589E-14
 0.11380E-13 0.14433E-13 0.16237E-13 0.23717E-13 0.15508E-12 0.12314E-12 0.13431E-12 0.18264E-12 0.60636E-13 0.30531E-15
 0.34694E-15 0.48572E-15 0.14155E-14 0.13878E-14 0.11102E-15 0.44409E-15 0.18430E-13 0.28699E-13 0.76050E-14 0.11824E-13
 0.33112E-13 0.10908E-13 0.14574E-12 0.13446E-12 0.16256E-12 0.23266E-12 0.54345E-13 0.14710E-14 0.27409E-15 0.38858E-15
 0.83267E-16 0.16653E-14 0.16653E-15 0.36082E-14 0.47962E-13 0.39024E-13 0.55511E-16 0.22204E-15 0.37470E-13 0.22204E-15
 0.14821E-12 0.18262E-12 0.23273E-12 0.26550E-12 0.32205E-13 0.55640E-13 0.64539E-13 0.53860E-13 0.29893E-13 0.10825E-14
 0.11935E-14 0.15654E-13 -.55511E-16 0.15599E-13 0.55511E-16 0.15599E-13 0.11935E-14 0.12212E-14 0.29740E-13 0.50800E-13
 0.60466E-13 0.54168E-13 0.55553E-13 0.24305E-12 0.22267E-12 0.17569E-12 0.13585E-12 0.27756E-15 0.38025E-13 0.27756E-15
 -.11102E-15 0.39524E-13 0.48628E-13 0.35527E-14 0.33307E-15 0.17486E-14 0.97145E-16 0.37470E-15 0.30184E-15 0.14155E-14
 0.64580E-13 0.22273E-12 0.16777E-12 0.13881E-12 0.13967E-12 0.11949E-13 0.32696E-13 0.11685E-13 0.74940E-14 0.28921E-13
 0.18874E-13 0.38858E-15 0.16653E-15 0.13878E-14 0.14433E-14 0.58287E-15 0.35388E-15 0.30531E-15 0.53776E-13 0.17558E-12
 0.13853E-12 0.12632E-12 0.14794E-12 0.25716E-13 0.15959E-13 0.14433E-13 0.11324E-13 0.95479E-14 0.55511E-16 0.37748E-14
 0.38858E-15 0.11657E-14 0.94369E-15 0.55511E-15 0.45797E-15 0.33307E-15 0.29907E-13 0.13584E-12 0.13969E-12 0.14817E-12
 0.18603E-12 0.22898E-13 0.23898E-13 0.25924E-13 0.36582E-13 0.42855E-13 0.49849E-13 0.73830E-13 0.92371E-13 0.67280E-13
 0.52180E-14 0.10825E-14 0.14710E-14 0.55511E-16 0.13045E-14 0.13878E-15 0.12046E-13 0.25674E-13 0.22995E-13 0.47379E-13
 0.26702E-12 0.34503E-12 0.88940E-12 0.18598E-11 0.47379E-12 0.12801E-12 0.93398E-13 0.14844E-12 0.70388E-13 0.11102E-14
 0.14988E-14 0.16098E-14 0.12212E-14 0.37997E-13 0.32974E-13 0.15807E-13 0.23717E-13 0.26691E-12 0.12876E-11 0.48110E-11
 0.12862E-10 0.51041E-11 0.38997E-12 0.87430E-13 0.58065E-13 0.92287E-13 0.93592E-13 0.33307E-15  0.0000     0.16653E-15
 0.15710E-13 0.33307E-15 0.11796E-13 0.14211E-13 0.25729E-13 0.34478E-12 0.48111E-11 0.91414E-10 0.12883E-09 0.12755E-10
 0.73669E-12 0.14405E-12 0.87402E-13 0.12690E-12 0.73053E-13 0.38858E-14 0.33307E-15 0.35527E-14 0.55511E-16 0.11102E-15
 0.73830E-14 0.11324E-13 0.36471E-13 0.88929E-12 0.12862E-10 0.12883E-09 0.12572E-09 0.40916E-10 0.49996E-11 0.73963E-12
 0.39402E-12 0.49077E-12 0.49960E-13 0.22204E-15 0.18596E-13 0.48128E-13 0.76605E-14  0.0000     0.77716E-15 0.33307E-15
 0.15543E-14 0.38858E-12 0.16805E-11 0.27731E-11 0.19399E-11 0.51736E-12 0.17374E-11 0.27330E-11 0.17359E-11 0.39085E-12
 0.16098E-14 0.22204E-15 0.94369E-15 0.55511E-16 0.33584E-13 0.11102E-15 0.55511E-16 0.75495E-14 0.11102E-15 0.26013E-12
 0.24941E-12 0.45886E-12 0.19857E-11 0.17374E-11 0.90927E-13 0.10630E-12 0.12418E-12 0.13101E-13 0.40523E-14 0.27756E-15
 0.99920E-15 0.24203E-13 0.87208E-13 0.15044E-13 0.79381E-14 0.20262E-13 0.12434E-13 0.80241E-13 0.61659E-13 0.10265E-12
 0.46463E-12 0.27330E-11 0.10619E-12 0.10476E-10 0.43667E-10 0.52686E-12 0.70222E-14 0.55511E-16 0.58287E-15 0.31197E-13
 0.39996E-13 0.24092E-13 0.10436E-13 0.11824E-13 0.24925E-13 0.57926E-13 0.40551E-13 0.61742E-13 0.24997E-12 0.17358E-11
 0.12412E-12 0.43667E-10 0.38985E-09 0.46559E-12 0.66197E-14 0.55511E-16 0.14710E-14 0.44409E-15 0.31974E-13 0.15044E-13
 0.39413E-14 0.37192E-14 0.94369E-14 0.80824E-13 0.58342E-13 0.80436E-13 0.24991E-12 0.39080E-12 0.13212E-13 0.52688E-12
 0.46571E-12 0.26620E-12 0.11945E-12 0.50335E-13 0.31530E-13 0.26507E-13 0.59758E-13 0.87985E-14 0.15821E-14 0.18319E-14
 0.19984E-14 0.90483E-14 0.24869E-13 0.12657E-13 -.55511E-16 0.16098E-14 0.41078E-14 0.70777E-14 0.65295E-14 0.11936E-12
 0.25801E-12 0.16978E-12 0.15342E-12 0.15282E-12 0.57732E-13 0.53707E-14 0.10547E-14 0.91593E-15 0.17764E-14 0.34417E-14
 0.11879E-13 0.20373E-13 0.77161E-14 0.27756E-15 0.55511E-16 0.27756E-16 0.69389E-16 0.50300E-13 0.16983E-12 0.14069E-12
 0.14613E-12 0.16353E-12 0.65663E-13 0.58877E-14 0.13184E-14 0.10547E-14 0.15266E-14 0.38858E-14 0.10714E-13 0.78826E-14
 -.11102E-15 0.83267E-15 0.10547E-14 0.44409E-15 0.13184E-14 0.31572E-13 0.15334E-12 0.14616E-12 0.16691E-12 0.19227E-12
 0.67989E-13 0.12785E-13 0.60403E-14 0.55095E-14 0.87708E-14 0.14988E-13 0.24036E-13 0.14710E-13 -.16653E-15 0.55511E-16
 0.24203E-13 0.31142E-13 0.52736E-15 0.26493E-13 0.15290E-12 0.16349E-12 0.19242E-12 0.19664E-12 0.56245E-13 0.66697E-13
 0.62270E-13 0.54692E-13 0.59536E-13 0.31142E-13 0.39468E-13 0.87597E-13 0.34195E-13 0.76050E-14 0.33695E-13 0.87125E-13
 0.39913E-13 0.31697E-13 0.59827E-13 0.57745E-13 0.65732E-13 0.67892E-13 0.66693E-13 0.21286E-12 0.20049E-12 0.16977E-12
 0.16608E-12 0.25216E-13 0.47184E-15 0.31863E-13 0.24675E-13 0.11102E-15  0.0000     0.14877E-13 0.24147E-13 0.14905E-13
 0.87153E-14 0.54956E-14 0.59813E-14 0.12719E-13 0.62266E-13 0.20049E-12 0.16135E-12 0.14137E-12 0.16051E-12 0.29129E-13
 0.14155E-14 0.41633E-15 0.10547E-14 0.88818E-15  0.0000     0.78826E-14 0.10603E-13 0.39413E-14 0.15821E-14 0.11380E-14
 0.13323E-14 0.59709E-14 0.54727E-13 0.16969E-12 0.14118E-12 0.13654E-12 0.17831E-12 0.46532E-13 0.41633E-16 -.55511E-16
  0.0000     0.38858E-15 0.75495E-14 0.20206E-13 0.12046E-13 0.36082E-14 0.19429E-14 0.10547E-14 0.10270E-14 0.54401E-14
 0.59563E-13 0.16613E-12 0.16068E-12 0.17859E-12 0.28362E-12 0.11336E-12 0.66405E-14 0.71887E-14 0.42188E-14 0.15543E-14
 0.11102E-15 0.12323E-13 0.24925E-13 0.94369E-14 0.19984E-14 0.18874E-14 0.15821E-14 0.88263E-14 0.31447E-13 0.25230E-13
 0.29476E-13 0.46678E-13 0.11332E-12 0.25352E-12 0.46199E-12 0.52325E-12 0.13656E-13 0.38880E-12 0.26029E-12 0.80297E-13
 0.58120E-13 0.80908E-13 0.89928E-14 0.37192E-14 0.40523E-14 0.15071E-13 0.39468E-13 0.49960E-15 0.13323E-14 -.83267E-16
 0.65156E-14 0.46185E-12 0.38280E-09 0.42242E-10 0.12462E-12 0.16805E-11 0.24933E-12 0.61604E-13 0.40565E-13 0.58259E-13
 0.24758E-13 0.11824E-13 0.10325E-13 0.23814E-13 0.87680E-13 0.31836E-13 0.44409E-15 -.27756E-16 0.69944E-14 0.52303E-12
 0.42242E-10 0.10787E-10 0.10209E-12 0.27731E-11 0.45874E-12 0.10257E-12 0.61728E-13 0.80352E-13 0.12601E-13 0.20428E-13
 0.79381E-14 0.14766E-13 0.34278E-13 0.24758E-13 0.99920E-15 0.11102E-15 0.41078E-14 0.13656E-13 0.12473E-12 0.10203E-12
 0.86819E-13 0.19398E-11 0.19857E-11 0.46455E-12 0.25008E-12 0.24980E-12 -.11102E-15 0.78826E-14 0.55511E-16 -.11102E-15
 0.30531E-14 0.89373E-14 0.84932E-14 0.34417E-14 0.17153E-13 0.84160E-12 0.15563E-11 0.17383E-11 0.10455E-11 0.51181E-12
 0.11321E-11 0.18064E-11 0.15574E-11 0.85559E-12 0.16986E-13 0.34972E-14 0.84377E-14 0.88263E-14 0.83267E-16 0.11602E-13
 0.59952E-14  0.0000     0.22038E-13 0.29993E-12 0.24625E-12 0.43437E-12 0.14606E-11 0.11321E-11 0.41328E-12 0.67973E-12
 0.11852E-11 0.46696E-12 0.15932E-13 0.42188E-14 0.26090E-14  0.0000     0.23315E-14 0.14433E-14 0.22204E-15 0.11102E-14
 0.39968E-13 0.80713E-13 0.56552E-13 0.94563E-13 0.42388E-12 0.18064E-11 0.67973E-12 0.72090E-12 0.16883E-11 0.50987E-12
 0.12906E-13 0.54678E-14 0.43854E-14 -.27756E-16 0.69389E-15 0.33307E-15  0.0000     -.55511E-16 0.52736E-13 0.56788E-13
 0.36374E-13 0.56483E-13 0.24300E-12 0.15572E-11 0.11851E-11 0.16882E-11 0.17070E-10 0.19053E-11 0.15127E-13 0.69111E-14
 0.12809E-13 0.12962E-13 0.94369E-15 0.99920E-15 0.88818E-15 0.72164E-15 0.43798E-13 0.94758E-13 0.57010E-13 0.81490E-13
 0.31286E-12 0.85559E-12 0.46696E-12 0.50987E-12 0.19054E-11 0.25091E-12 0.14558E-13 0.11810E-13 0.45380E-14 0.55511E-16
 0.10256E-13 0.13878E-15 0.72164E-15 0.55511E-15 0.31086E-14 0.45186E-13 0.52347E-13 0.38802E-13 0.21816E-13 0.17042E-13
 0.15932E-13 0.12990E-13 0.15057E-13 0.14586E-13 0.16091E-12 0.12207E-12 0.10232E-12 0.72720E-13 0.17042E-13 0.83267E-16
 0.19429E-15 0.33307E-15 0.44409E-15 0.44409E-15  0.0000     0.11102E-14 -.16653E-15 0.34972E-14 0.40523E-14 0.55234E-14
 0.68834E-14 0.11602E-13 0.12225E-12 0.11133E-12 0.10790E-12 0.95382E-13 0.18451E-13 0.69389E-16 0.13878E-15 0.24980E-15
 0.55511E-15 0.66613E-15 0.55511E-16 0.11102E-15 0.57732E-14 0.83822E-14 0.25813E-14 0.42188E-14 0.12698E-13 0.44409E-14
 0.10232E-12 0.10797E-12 0.11591E-12 0.10707E-12 0.13694E-13 0.21164E-15 0.34694E-16 0.83267E-16 0.55511E-16 0.99920E-15
 0.16653E-15 0.13878E-14 0.11324E-13 0.87708E-14 -.27756E-16 0.13878E-16 0.12892E-13 -.27756E-16 0.72664E-13 0.95313E-13
 0.10718E-12 0.86021E-13 0.75009E-14 0.14020E-13 0.19394E-13 0.17743E-13 0.10048E-13 0.77716E-15 0.72164E-15 0.23037E-14
 0.27756E-16 0.29976E-14 0.55511E-16 0.21649E-14 0.63838E-15 0.95757E-15 0.10200E-13 0.17070E-13 0.18506E-13 0.13670E-13
 0.13902E-13 0.80221E-13 0.10298E-12 0.92024E-13 0.66919E-13 -.27756E-16 0.13128E-13 0.97145E-16 -.83267E-16 0.89095E-14
 0.11435E-13 0.12768E-14 0.33307E-15 0.10825E-14 0.83267E-16 0.12490E-15 0.83267E-16 0.21164E-15 0.19339E-13 0.10297E-12
 0.12000E-12 0.11201E-12 0.97269E-13 0.48156E-14 0.12476E-13 0.42188E-14 0.25813E-14 0.84377E-14 0.58842E-14 0.22204E-15
 0.55511E-16 0.77716E-15 0.61062E-15 0.36082E-15 0.16653E-15 -.13878E-16 0.17888E-13 0.92079E-13 0.11190E-12 0.11510E-12
 0.11553E-12 0.12532E-13 0.68001E-14 0.56066E-14 0.40523E-14 0.34417E-14 0.55511E-16 0.94369E-15 0.11102E-15 0.77716E-15
 0.61062E-15 0.33307E-15 0.19429E-15 0.11102E-15 0.10186E-13 0.67071E-13 0.97464E-13 0.11574E-12 0.14587E-12 0.15446E-13
 0.14946E-13 0.13045E-13 0.15932E-13 0.17264E-13 0.21982E-13 0.39968E-13 0.52902E-13 0.43798E-13 0.32196E-14 0.61062E-15
 0.66613E-15 0.27756E-16 0.10131E-14 -.12490E-15 0.49960E-14 0.12504E-13 0.15377E-13 0.26695E-12 0.19153E-11 0.51059E-12
 0.45414E-12 0.84166E-12 0.30009E-12 0.80880E-13 0.57065E-13 0.94869E-13 0.45075E-13 0.66613E-15 0.83267E-15 0.94369E-15
 0.83267E-15 0.13031E-13 0.12601E-13 0.67168E-14 0.14891E-13 0.19154E-11 0.16802E-10 0.16847E-11 0.12113E-11 0.15563E-11
 0.24619E-12 0.56427E-13 0.36304E-13 0.57065E-13 0.52125E-13  0.0000     -.11102E-15 0.27756E-15 0.23315E-14 0.27756E-16
 0.41911E-14 0.54401E-14 0.12823E-13 0.51043E-12 0.16848E-11 0.71332E-12 0.70122E-12 0.17383E-11 0.43426E-12 0.94535E-13
 0.56496E-13 0.81435E-13 0.38747E-13 0.11102E-14 0.27756E-15 0.13878E-14 0.83267E-16 0.27756E-16 0.25813E-14 0.41078E-14
 0.15932E-13 0.45397E-12 0.12114E-11 0.70127E-12 0.42494E-12 0.10456E-11 0.14606E-11 0.42377E-12 0.24319E-12 0.31303E-12
 0.21760E-13 0.55511E-16 0.59952E-14 0.11435E-13 0.14155E-14 0.83267E-16 0.36082E-15 0.22204E-15 0.38858E-15 0.13434E-12
 0.36210E-12 0.35683E-12 0.14566E-12 0.47184E-13 0.13683E-12 0.34273E-12 0.35671E-12 0.13051E-12 0.27756E-15 0.11102E-15
 0.47184E-15 0.83267E-16 0.67446E-14 0.19429E-15 0.11102E-15 0.22760E-14 0.11102E-15 0.14833E-12 0.14172E-12 0.23526E-12
 0.51503E-12 0.13689E-12 0.68834E-14 0.49960E-14 0.73275E-14 0.72164E-15 0.83267E-15 0.11102E-15 0.30531E-15 0.58425E-14
 0.18013E-13 0.33862E-14 0.22204E-14 0.68279E-14 0.63838E-14 0.49905E-13 0.39080E-13 0.65059E-13 0.24269E-12 0.34273E-12
 0.49405E-14 0.18235E-13 0.55927E-13 0.10875E-12 0.21094E-14 0.83267E-16 0.22204E-15 0.76883E-14 0.88263E-14 0.63283E-14
 0.33307E-14 0.39968E-14 0.13767E-13 0.35305E-13 0.25202E-13 0.39080E-13 0.14455E-12 0.35671E-12 0.73275E-14 0.55789E-13
 0.21932E-12 0.32128E-12 0.22482E-14 0.97145E-16 0.86736E-15 0.55511E-16 0.10075E-13 0.48295E-14 0.14988E-14 0.16098E-14
 0.66058E-14 0.50460E-13 0.35194E-13 0.49405E-13 0.14222E-12 0.13051E-12 0.77716E-15 0.10875E-12 0.32139E-12 0.16599E-11
 0.77400E-13 0.24102E-13 0.13760E-13 0.97006E-14 0.22510E-13 0.31086E-14 0.55511E-15 0.61062E-15 0.77716E-15 0.65503E-14
 0.13933E-13 0.66613E-14 0.55511E-16 0.27756E-15 0.88818E-15 0.21372E-14 0.21511E-14 0.77258E-13 0.18383E-12 0.11992E-12
 0.99018E-13 0.75676E-13 0.21594E-13 0.18041E-14 0.33307E-15 0.38858E-15 0.61062E-15 0.12768E-14 0.42188E-14 0.68279E-14
 0.23315E-14 0.55511E-16 0.27756E-16 0.13878E-16 0.23592E-15 0.24095E-13 0.11997E-12 0.11531E-12 0.10804E-12 0.84408E-13
 0.22871E-13 0.19013E-14 0.38858E-15 0.27756E-15 0.44409E-15 0.13323E-14 0.33307E-14 0.22204E-14 -.55511E-16 0.41633E-15
 0.27756E-15 0.83267E-16 0.68001E-15 0.13663E-13 0.99008E-13 0.10806E-12 0.11080E-12 0.90480E-13 0.20768E-13 0.39205E-14
 0.19845E-14 0.18874E-14 0.30809E-14 0.46629E-14 0.61062E-14 0.33029E-14 -.83267E-16 0.27756E-16 0.58287E-14 0.77438E-14
  0.0000     0.97838E-14 0.75589E-13 0.84394E-13 0.90570E-13 0.72496E-13 0.16094E-13 0.20478E-13 0.21955E-13 0.20609E-13
 0.22551E-13 0.96451E-14 0.87985E-14 0.18027E-13 0.67585E-14 0.12351E-14 0.66752E-14 0.17902E-13 0.87569E-14 0.97838E-14
 0.22551E-13 0.21552E-13 0.22864E-13 0.20664E-13 0.20343E-13 0.77303E-13 0.93744E-13 0.87156E-13 0.81272E-13 0.91871E-14
 0.10408E-15 0.79242E-14 0.59813E-14 0.83267E-16 0.27756E-16 0.32474E-14 0.62172E-14 0.47740E-14 0.30531E-14 0.19984E-14
 0.19845E-14 0.38164E-14 0.21851E-13 0.93831E-13 0.10692E-12 0.10417E-12 0.10393E-12 0.12775E-13 0.72858E-15 0.69389E-16
 0.22204E-15 0.38858E-15 0.11102E-15 0.23315E-14 0.34417E-14 0.14433E-14 0.38858E-15 0.38858E-15 0.44409E-15 0.18735E-14
 0.20602E-13 0.87218E-13 0.10409E-12 0.11149E-12 0.12643E-12 0.22489E-13 0.13184E-15  0.0000     -.16653E-15 0.16653E-15
 0.24425E-14 0.66058E-14 0.42744E-14 0.14433E-14 0.77716E-15 0.44409E-15 0.33307E-15 0.18596E-14 0.22662E-13 0.81341E-13
 0.10404E-12 0.12662E-12 0.20182E-12 0.73188E-13 0.23037E-14 0.22482E-14 0.88818E-15 0.27756E-15 0.11102E-15 0.62728E-14
 0.13767E-13 0.67168E-14 0.77716E-15 0.77716E-15 0.49960E-15 0.30531E-14 0.98671E-14 0.93536E-14 0.13080E-13 0.22531E-13
 0.73139E-13 0.15322E-11 0.31938E-12 0.10869E-12 0.72164E-15 0.13434E-12 0.14844E-12 0.49905E-13 0.35472E-13 0.50626E-13
 0.64948E-14 0.14988E-14 0.13878E-14 0.47740E-14 0.88818E-14 0.83267E-16 0.78410E-15  0.0000     0.20955E-14 0.31933E-12
 0.22002E-12 0.55900E-13 0.71054E-14 0.36221E-12 0.14172E-12 0.38969E-13 0.25091E-13 0.35250E-13 0.13933E-13 0.41078E-14
 0.32752E-14 0.59952E-14 0.18111E-13 0.78132E-14 0.15266E-15  0.0000     0.19984E-14 0.10858E-12 0.55983E-13 0.18457E-13
 0.48850E-14 0.35688E-12 0.23503E-12 0.65004E-13 0.39191E-13 0.49405E-13 0.67168E-14 0.67168E-14 0.24425E-14 0.34417E-14
 0.68834E-14 0.60230E-14 0.22204E-15 -.27756E-16 0.88818E-15 0.66613E-15 0.72720E-14 0.48850E-14 0.66613E-14 0.14566E-12
 0.51503E-12 0.24269E-12 0.14455E-12 0.14222E-12 0.55511E-16 0.24425E-14 0.55511E-16 0.55511E-16 0.95757E-15 0.25951E-14
 0.31086E-14 0.13323E-14 0.68279E-14 0.23265E-12 0.30664E-12 0.26606E-12 0.14028E-12 0.74496E-13 0.14738E-12 0.27628E-12
 0.31319E-12 0.24003E-12 0.66058E-14 0.12768E-14 0.30809E-14 0.26368E-14 0.62450E-16 0.34139E-14 0.20539E-14  0.0000    
 0.92149E-14 0.15515E-12 0.13262E-12 0.20817E-12 0.38097E-12 0.14744E-12 0.41522E-13 0.47795E-13 0.78326E-13 0.82434E-13
 0.58842E-14 0.15266E-14 0.95757E-15 -.69389E-16 0.84655E-15 0.36082E-15 0.11102E-15 0.38858E-15 0.18152E-13 0.47962E-13
 0.35083E-13 0.57843E-13 0.20073E-12 0.27633E-12 0.47767E-13 0.24342E-13 0.35527E-13 0.56039E-13 0.44825E-14 0.19845E-14
 0.15890E-14 0.13878E-16 0.26368E-15 0.16653E-15  0.0000     -.55511E-16 0.26479E-13 0.33473E-13 0.22427E-13 0.35083E-13
 0.12934E-12 0.31308E-12 0.78271E-13 0.35472E-13 0.67682E-13 0.28036E-12 0.64115E-14 0.27200E-14 0.49127E-14 0.42674E-14
 0.40246E-15 0.33307E-15 0.33307E-15 0.38858E-15 0.25480E-13 0.56954E-13 0.33973E-13 0.48794E-13 0.16170E-12 0.24003E-12
 0.82379E-13 0.56066E-13 0.28039E-12 0.27915E-11 0.97561E-14 0.60368E-14 0.20400E-14 -.13878E-16 0.44964E-14 0.11102E-15
 0.27756E-15 0.22204E-15 0.17764E-14 0.25979E-13 0.25979E-13 0.17597E-13 0.89373E-14 0.67168E-14 0.58842E-14 0.45797E-14
 0.62728E-14 0.98394E-14 0.10907E-12 0.80991E-13 0.63921E-13 0.37137E-13 0.72026E-14  0.0000     0.55511E-16 0.16653E-15
 0.16653E-15 0.11102E-15 0.55511E-16 0.44409E-15 -.16653E-15 0.13323E-14 0.14988E-14 0.19984E-14 0.26923E-14 0.59397E-14
 0.81019E-13 0.83711E-13 0.75051E-13 0.49849E-13 0.74107E-14 -.41633E-16  0.0000     0.55511E-16 0.22204E-15 0.33307E-15
 0.55511E-16 0.11102E-15 0.19984E-14 0.30254E-14 0.97145E-15 0.15266E-14 0.47601E-14 0.20400E-14 0.63907E-13 0.75162E-13
 0.74135E-13 0.51847E-13 0.50515E-14 0.13184E-15 0.97145E-16 0.55511E-16 0.55511E-16 0.27756E-15 0.55511E-16 0.36082E-15
 0.32474E-14 0.26368E-14 0.20817E-16 -.69389E-17 0.42813E-14 -.69389E-16 0.37192E-13 0.49780E-13 0.52000E-13 0.34514E-13
 0.25535E-14 0.51625E-14 0.77507E-14 0.75079E-14 0.42605E-14 0.23592E-15 0.22204E-15 0.73552E-15 -.27756E-16 0.76328E-15