unknown system                          
           1
     3.315000    0.000000    0.000000
     0.000000    3.315000    0.000000
     0.000000    0.000000   24.126512
   C    N 
   2   4
Direct configuration=     1
   0.00000000  0.00000000  0.50000000
   0.50000000  0.50000000  0.50000000
   0.34555363  0.15444637  0.53165919
   0.15444637  0.65444637  0.46834081
   0.65444637  0.84555363  0.53165919
   0.84555363  0.34555363  0.46834081
